4
# CELL(abcABC): 1000.00000  1000.00000  1000.00000    90.00000    90.00000    90.00000  Step:           0  Bead:       0 positions{angstrom}  cell{angstrom}
       O -3.14738e+00  1.06000e+00  3.63772e-01
       H -4.05786e+00  1.11762e+00  6.04988e-01
       H -2.86667e+00  1.49215e-01  3.33730e-01
       H -2.50174e+00  1.97791e+00 -2.73504e-02
4
# CELL(abcABC): 1000.00000  1000.00000  1000.00000    90.00000    90.00000    90.00000  Step:           1  Bead:       0 positions{angstrom}  cell{angstrom}
       O -3.14556e+00  1.06041e+00  3.63148e-01
       H -4.06901e+00  1.10995e+00  6.09735e-01
       H -2.86682e+00  1.47755e-01  3.35063e-01
       H -2.51930e+00  1.98046e+00 -2.35269e-02
4
# CELL(abcABC): 1000.00000  1000.00000  1000.00000    90.00000    90.00000    90.00000  Step:           2  Bead:       0 positions{angstrom}  cell{angstrom}
       O -3.14369e+00  1.06105e+00  3.62400e-01
       H -4.08138e+00  1.10152e+00  6.15502e-01
       H -2.86590e+00  1.44874e-01  3.36728e-01
       H -2.53757e+00  1.98169e+00 -1.90870e-02
4
# CELL(abcABC): 1000.00000  1000.00000  1000.00000    90.00000    90.00000    90.00000  Step:           3  Bead:       0 positions{angstrom}  cell{angstrom}
       O -3.14176e+00  1.06193e+00  3.61505e-01
       H -4.09241e+00  1.09095e+00  6.23066e-01
       H -2.86574e+00  1.42162e-01  3.39371e-01
       H -2.55725e+00  1.98101e+00 -1.50880e-02
4
# CELL(abcABC): 1000.00000  1000.00000  1000.00000    90.00000    90.00000    90.00000  Step:           4  Bead:       0 positions{angstrom}  cell{angstrom}
       O -3.13997e+00  1.06303e+00  3.60665e-01
       H -4.10125e+00  1.07831e+00  6.29109e-01
       H -2.86538e+00  1.39672e-01  3.41915e-01
       H -2.57732e+00  1.97865e+00 -1.03438e-02
4
# CELL(abcABC): 1000.00000  1000.00000  1000.00000    90.00000    90.00000    90.00000  Step:           5  Bead:       0 positions{angstrom}  cell{angstrom}
       O -3.13827e+00  1.06414e+00  3.59882e-01
       H -4.10726e+00  1.06495e+00  6.34087e-01
       H -2.86599e+00  1.38409e-01  3.45801e-01
       H -2.59766e+00  1.97560e+00 -6.77283e-03
4
# CELL(abcABC): 1000.00000  1000.00000  1000.00000    90.00000    90.00000    90.00000  Step:           6  Bead:       0 positions{angstrom}  cell{angstrom}
       O -3.13673e+00  1.06541e+00  3.59185e-01
       H -4.10877e+00  1.05134e+00  6.37041e-01
       H -2.86741e+00  1.35918e-01  3.48996e-01
       H -2.61914e+00  1.97158e+00 -1.86514e-03
4
# CELL(abcABC): 1000.00000  1000.00000  1000.00000    90.00000    90.00000    90.00000  Step:           7  Bead:       0 positions{angstrom}  cell{angstrom}
       O -3.13556e+00  1.06660e+00  3.58370e-01
       H -4.10408e+00  1.03750e+00  6.40061e-01
       H -2.86902e+00  1.33794e-01  3.53237e-01
       H -2.64087e+00  1.96876e+00  3.81056e-03
4
# CELL(abcABC): 1000.00000  1000.00000  1000.00000    90.00000    90.00000    90.00000  Step:           8  Bead:       0 positions{angstrom}  cell{angstrom}
       O -3.13480e+00  1.06774e+00  3.57692e-01
       H -4.09382e+00  1.02375e+00  6.41220e-01
       H -2.86944e+00  1.31750e-01  3.57027e-01
       H -2.66273e+00  1.96638e+00  9.62456e-03
4
# CELL(abcABC): 1000.00000  1000.00000  1000.00000    90.00000    90.00000    90.00000  Step:           9  Bead:       0 positions{angstrom}  cell{angstrom}
       O -3.13439e+00  1.06886e+00  3.56967e-01
       H -4.07968e+00  1.00952e+00  6.42485e-01
       H -2.86842e+00  1.31140e-01  3.61530e-01
       H -2.68434e+00  1.96352e+00  1.53775e-02
4
# CELL(abcABC): 1000.00000  1000.00000  1000.00000    90.00000    90.00000    90.00000  Step:          10  Bead:       0 positions{angstrom}  cell{angstrom}
       O -3.13425e+00  1.06973e+00  3.56436e-01
       H -4.06273e+00  9.95886e-01  6.42274e-01
       H -2.86657e+00  1.32696e-01  3.65323e-01
       H -2.70545e+00  1.96177e+00  2.02254e-02
4
# CELL(abcABC): 1000.00000  1000.00000  1000.00000    90.00000    90.00000    90.00000  Step:          11  Bead:       0 positions{angstrom}  cell{angstrom}
       O -3.13428e+00  1.07040e+00  3.56105e-01
       H -4.04444e+00  9.83782e-01  6.40494e-01
       H -2.86509e+00  1.35436e-01  3.68613e-01
       H -2.72471e+00  1.96049e+00  2.39571e-02
4
# CELL(abcABC): 1000.00000  1000.00000  1000.00000    90.00000    90.00000    90.00000  Step:          12  Bead:       0 positions{angstrom}  cell{angstrom}
       O -3.13453e+00  1.07090e+00  3.55887e-01
       H -4.02579e+00  9.72466e-01  6.38723e-01
       H -2.86250e+00  1.38250e-01  3.70698e-01
       H -2.74196e+00  1.96100e+00  2.71000e-02
4
# CELL(abcABC): 1000.00000  1000.00000  1000.00000    90.00000    90.00000    90.00000  Step:          13  Bead:       0 positions{angstrom}  cell{angstrom}
       O -3.13482e+00  1.07119e+00  3.55654e-01
       H -4.01035e+00  9.62742e-01  6.38287e-01
       H -2.85720e+00  1.42056e-01  3.72488e-01
       H -2.75813e+00  1.96231e+00  2.94472e-02
4
# CELL(abcABC): 1000.00000  1000.00000  1000.00000    90.00000    90.00000    90.00000  Step:          14  Bead:       0 positions{angstrom}  cell{angstrom}
       O -3.13503e+00  1.07124e+00  3.55350e-01
       H -3.99893e+00  9.53681e-01  6.40096e-01
       H -2.84977e+00  1.47416e-01  3.73883e-01
       H -2.77360e+00  1.96523e+00  3.10763e-02
4
# CELL(abcABC): 1000.00000  1000.00000  1000.00000    90.00000    90.00000    90.00000  Step:          15  Bead:       0 positions{angstrom}  cell{angstrom}
       O -3.13496e+00  1.07097e+00  3.54761e-01
       H -3.99638e+00  9.44948e-01  6.46469e-01
       H -2.84118e+00  1.53968e-01  3.75064e-01
       H -2.78586e+00  1.97166e+00  3.28671e-02
4
# CELL(abcABC): 1000.00000  1000.00000  1000.00000    90.00000    90.00000    90.00000  Step:          16  Bead:       0 positions{angstrom}  cell{angstrom}
       O -3.13473e+00  1.07045e+00  3.54097e-01
       H -3.99954e+00  9.36681e-01  6.54946e-01
       H -2.83088e+00  1.61854e-01  3.75888e-01
       H -2.79662e+00  1.98032e+00  3.41033e-02
4
# CELL(abcABC): 1000.00000  1000.00000  1000.00000    90.00000    90.00000    90.00000  Step:          17  Bead:       0 positions{angstrom}  cell{angstrom}
       O -3.13428e+00  1.06977e+00  3.53371e-01
       H -4.00757e+00  9.29770e-01  6.65739e-01
       H -2.81963e+00  1.70133e-01  3.75325e-01
       H -2.80695e+00  1.98968e+00  3.54094e-02
4
# CELL(abcABC): 1000.00000  1000.00000  1000.00000    90.00000    90.00000    90.00000  Step:          18  Bead:       0 positions{angstrom}  cell{angstrom}
       O -3.13379e+00  1.06890e+00  3.52620e-01
       H -4.02025e+00  9.24700e-01  6.78153e-01
       H -2.80525e+00  1.77518e-01  3.74250e-01
       H -2.81654e+00  2.00123e+00  3.59776e-02
4
# CELL(abcABC): 1000.00000  1000.00000  1000.00000    90.00000    90.00000    90.00000  Step:          19  Bead:       0 positions{angstrom}  cell{angstrom}
       O -3.13351e+00  1.06800e+00  3.51882e-01
       H -4.03369e+00  9.20621e-01  6.91594e-01
       H -2.78966e+00  1.82997e-01  3.72097e-01
       H -2.82310e+00  2.01411e+00  3.64051e-02
4
# CELL(abcABC): 1000.00000  1000.00000  1000.00000    90.00000    90.00000    90.00000  Step:          20  Bead:       0 positions{angstrom}  cell{angstrom}
       O -3.13348e+00  1.06711e+00  3.51283e-01
       H -4.04593e+00  9.18149e-01  7.03332e-01
       H -2.77324e+00  1.87095e-01  3.69803e-01
       H -2.82775e+00  2.02672e+00  3.64747e-02
4
# CELL(abcABC): 1000.00000  1000.00000  1000.00000    90.00000    90.00000    90.00000  Step:          21  Bead:       0 positions{angstrom}  cell{angstrom}
       O -3.13387e+00  1.06619e+00  3.50883e-01
       H -4.05569e+00  9.16284e-01  7.12831e-01
       H -2.75375e+00  1.90373e-01  3.68130e-01
       H -2.83130e+00  2.03990e+00  3.50036e-02
4
# CELL(abcABC): 1000.00000  1000.00000  1000.00000    90.00000    90.00000    90.00000  Step:          22  Bead:       0 positions{angstrom}  cell{angstrom}
       O -3.13472e+00  1.06517e+00  3.50738e-01
       H -4.06243e+00  9.14512e-01  7.21660e-01
       H -2.73102e+00  1.92931e-01  3.64586e-01
       H -2.83377e+00  2.05517e+00  3.20080e-02
4
# CELL(abcABC): 1000.00000  1000.00000  1000.00000    90.00000    90.00000    90.00000  Step:          23  Bead:       0 positions{angstrom}  cell{angstrom}
       O -3.13601e+00  1.06413e+00  3.50960e-01
       H -4.06406e+00  9.14039e-01  7.27951e-01
       H -2.70685e+00  1.95670e-01  3.61238e-01
       H -2.83581e+00  2.06945e+00  2.55439e-02
4
# CELL(abcABC): 1000.00000  1000.00000  1000.00000    90.00000    90.00000    90.00000  Step:          24  Bead:       0 positions{angstrom}  cell{angstrom}
       O -3.13770e+00  1.06296e+00  3.51364e-01
       H -4.05992e+00  9.13072e-01  7.32074e-01
       H -2.68238e+00  1.99902e-01  3.58048e-01
       H -2.83764e+00  2.08474e+00  1.82036e-02
4
# CELL(abcABC): 1000.00000  1000.00000  1000.00000    90.00000    90.00000    90.00000  Step:          25  Bead:       0 positions{angstrom}  cell{angstrom}
       O -3.13963e+00  1.06185e+00  3.51824e-01
       H -4.05098e+00  9.11287e-01  7.35055e-01
       H -2.65907e+00  2.04511e-01  3.55077e-01
       H -2.83920e+00  2.09951e+00  1.08958e-02
4
# CELL(abcABC): 1000.00000  1000.00000  1000.00000    90.00000    90.00000    90.00000  Step:          26  Bead:       0 positions{angstrom}  cell{angstrom}
       O -3.14173e+00  1.06081e+00  3.52362e-01
       H -4.03801e+00  9.08663e-01  7.35736e-01
       H -2.63695e+00  2.10390e-01  3.52069e-01
       H -2.84104e+00  2.11281e+00  4.68107e-03
4
# CELL(abcABC): 1000.00000  1000.00000  1000.00000    90.00000    90.00000    90.00000  Step:          27  Bead:       0 positions{angstrom}  cell{angstrom}
       O -3.14396e+00  1.05975e+00  3.52975e-01
       H -4.02248e+00  9.06397e-01  7.34721e-01
       H -2.61696e+00  2.17389e-01  3.49005e-01
       H -2.84112e+00  2.12487e+00 -9.71300e-04
4
# CELL(abcABC): 1000.00000  1000.00000  1000.00000    90.00000    90.00000    90.00000  Step:          28  Bead:       0 positions{angstrom}  cell{angstrom}
       O -3.14602e+00  1.05873e+00  3.53508e-01
       H -4.00704e+00  9.01533e-01  7.33302e-01
       H -2.59911e+00  2.26739e-01  3.46586e-01
       H -2.84173e+00  2.13668e+00 -5.60151e-03
4
# CELL(abcABC): 1000.00000  1000.00000  1000.00000    90.00000    90.00000    90.00000  Step:          29  Bead:       0 positions{angstrom}  cell{angstrom}
       O -3.14783e+00  1.05772e+00  3.53973e-01
       H -3.99183e+00  8.95429e-01  7.31042e-01
       H -2.58533e+00  2.38314e-01  3.44646e-01
       H -2.84190e+00  2.14718e+00 -8.76954e-03
4
# CELL(abcABC): 1000.00000  1000.00000  1000.00000    90.00000    90.00000    90.00000  Step:          30  Bead:       0 positions{angstrom}  cell{angstrom}
       O -3.14924e+00  1.05672e+00  3.54248e-01
       H -3.97916e+00  8.88273e-01  7.31025e-01
       H -2.57508e+00  2.51871e-01  3.43661e-01
       H -2.84246e+00  2.15673e+00 -1.21373e-02
4
# CELL(abcABC): 1000.00000  1000.00000  1000.00000    90.00000    90.00000    90.00000  Step:          31  Bead:       0 positions{angstrom}  cell{angstrom}
       O -3.15028e+00  1.05576e+00  3.54374e-01
       H -3.96948e+00  8.78806e-01  7.33445e-01
       H -2.56739e+00  2.68051e-01  3.42616e-01
       H -2.84341e+00  2.16513e+00 -1.55199e-02
4
# CELL(abcABC): 1000.00000  1000.00000  1000.00000    90.00000    90.00000    90.00000  Step:          32  Bead:       0 positions{angstrom}  cell{angstrom}
       O -3.15074e+00  1.05515e+00  3.54079e-01
       H -3.96627e+00  8.64674e-01  7.39227e-01
       H -2.56190e+00  2.86167e-01  3.43360e-01
       H -2.84475e+00  2.17091e+00 -1.73645e-02
4
# CELL(abcABC): 1000.00000  1000.00000  1000.00000    90.00000    90.00000    90.00000  Step:          33  Bead:       0 positions{angstrom}  cell{angstrom}
       O -3.15071e+00  1.05499e+00  3.53445e-01
       H -3.96882e+00  8.47027e-01  7.48833e-01
       H -2.55800e+00  3.02840e-01  3.45158e-01
       H -2.84656e+00  2.17446e+00 -1.86922e-02
4
# CELL(abcABC): 1000.00000  1000.00000  1000.00000    90.00000    90.00000    90.00000  Step:          34  Bead:       0 positions{angstrom}  cell{angstrom}
       O -3.15022e+00  1.05524e+00  3.52731e-01
       H -3.97459e+00  8.26689e-01  7.60091e-01
       H -2.55696e+00  3.17408e-01  3.47813e-01
       H -2.84958e+00  2.17613e+00 -2.12857e-02
4
# CELL(abcABC): 1000.00000  1000.00000  1000.00000    90.00000    90.00000    90.00000  Step:          35  Bead:       0 positions{angstrom}  cell{angstrom}
       O -3.14964e+00  1.05589e+00  3.51926e-01
       H -3.98027e+00  8.04358e-01  7.71315e-01
       H -2.55715e+00  3.30121e-01  3.51594e-01
       H -2.85301e+00  2.17547e+00 -2.35019e-02
4
# CELL(abcABC): 1000.00000  1000.00000  1000.00000    90.00000    90.00000    90.00000  Step:          36  Bead:       0 positions{angstrom}  cell{angstrom}
       O -3.14914e+00  1.05690e+00  3.51125e-01
       H -3.98542e+00  7.80852e-01  7.81631e-01
       H -2.55610e+00  3.40275e-01  3.54897e-01
       H -2.85675e+00  2.17288e+00 -2.44168e-02
4
# CELL(abcABC): 1000.00000  1000.00000  1000.00000    90.00000    90.00000    90.00000  Step:          37  Bead:       0 positions{angstrom}  cell{angstrom}
       O -3.14893e+00  1.05839e+00  3.50271e-01
       H -3.98802e+00  7.57752e-01  7.92338e-01
       H -2.55256e+00  3.45257e-01  3.57961e-01
       H -2.86107e+00  2.16735e+00 -2.46261e-02
4
# CELL(abcABC): 1000.00000  1000.00000  1000.00000    90.00000    90.00000    90.00000  Step:          38  Bead:       0 positions{angstrom}  cell{angstrom}
       O -3.14888e+00  1.06024e+00  3.49695e-01
       H -3.98845e+00  7.34790e-01  7.99707e-01
       H -2.54663e+00  3.44601e-01  3.60876e-01
       H -2.86732e+00  2.16151e+00 -2.57588e-02
4
# CELL(abcABC): 1000.00000  1000.00000  1000.00000    90.00000    90.00000    90.00000  Step:          39  Bead:       0 positions{angstrom}  cell{angstrom}
       O -3.14935e+00  1.06248e+00  3.49170e-01
       H -3.98419e+00  7.12293e-01  8.04878e-01
       H -2.53827e+00  3.39050e-01  3.64713e-01
       H -2.87247e+00  2.15400e+00 -2.64379e-02
4
# CELL(abcABC): 1000.00000  1000.00000  1000.00000    90.00000    90.00000    90.00000  Step:          40  Bead:       0 positions{angstrom}  cell{angstrom}
       O -3.15019e+00  1.06479e+00  3.48639e-01
       H -3.97566e+00  6.91600e-01  8.08008e-01
       H -2.52847e+00  3.31389e-01  3.70100e-01
       H -2.87759e+00  2.14573e+00 -2.65357e-02
4
# CELL(abcABC): 1000.00000  1000.00000  1000.00000    90.00000    90.00000    90.00000  Step:          41  Bead:       0 positions{angstrom}  cell{angstrom}
       O -3.15126e+00  1.06703e+00  3.48244e-01
       H -3.96331e+00  6.73779e-01  8.07635e-01
       H -2.51794e+00  3.23546e-01  3.75623e-01
       H -2.88346e+00  2.13590e+00 -2.54113e-02
4
# CELL(abcABC): 1000.00000  1000.00000  1000.00000    90.00000    90.00000    90.00000  Step:          42  Bead:       0 positions{angstrom}  cell{angstrom}
       O -3.15258e+00  1.06921e+00  3.48088e-01
       H -3.94594e+00  6.56517e-01  8.04003e-01
       H -2.50805e+00  3.16804e-01  3.81214e-01
       H -2.88970e+00  2.12519e+00 -2.48927e-02
4
# CELL(abcABC): 1000.00000  1000.00000  1000.00000    90.00000    90.00000    90.00000  Step:          43  Bead:       0 positions{angstrom}  cell{angstrom}
       O -3.15392e+00  1.07105e+00  3.48122e-01
       H -3.92623e+00  6.42544e-01  7.97483e-01
       H -2.49975e+00  3.13833e-01  3.86597e-01
       H -2.89654e+00  2.11297e+00 -2.42963e-02
4
# CELL(abcABC): 1000.00000  1000.00000  1000.00000    90.00000    90.00000    90.00000  Step:          44  Bead:       0 positions{angstrom}  cell{angstrom}
       O -3.15513e+00  1.07257e+00  3.48309e-01
       H -3.90505e+00  6.30169e-01  7.88426e-01
       H -2.49360e+00  3.13841e-01  3.90928e-01
       H -2.90463e+00  2.10116e+00 -2.25383e-02
4
# CELL(abcABC): 1000.00000  1000.00000  1000.00000    90.00000    90.00000    90.00000  Step:          45  Bead:       0 positions{angstrom}  cell{angstrom}
       O -3.15603e+00  1.07375e+00  3.48673e-01
       H -3.88480e+00  6.19749e-01  7.77601e-01
       H -2.48920e+00  3.17192e-01  3.93730e-01
       H -2.91504e+00  2.08962e+00 -2.02938e-02
4
# CELL(abcABC): 1000.00000  1000.00000  1000.00000    90.00000    90.00000    90.00000  Step:          46  Bead:       0 positions{angstrom}  cell{angstrom}
       O -3.15664e+00  1.07457e+00  3.49143e-01
       H -3.86676e+00  6.11115e-01  7.66152e-01
       H -2.48730e+00  3.23908e-01  3.95214e-01
       H -2.92529e+00  2.07842e+00 -1.77910e-02
4
# CELL(abcABC): 1000.00000  1000.00000  1000.00000    90.00000    90.00000    90.00000  Step:          47  Bead:       0 positions{angstrom}  cell{angstrom}
       O -3.15680e+00  1.07495e+00  3.49764e-01
       H -3.85253e+00  6.02593e-01  7.55688e-01
       H -2.48732e+00  3.34952e-01  3.94885e-01
       H -2.93683e+00  2.06984e+00 -1.68529e-02
4
# CELL(abcABC): 1000.00000  1000.00000  1000.00000    90.00000    90.00000    90.00000  Step:          48  Bead:       0 positions{angstrom}  cell{angstrom}
       O -3.15649e+00  1.07515e+00  3.50361e-01
       H -3.84305e+00  5.92678e-01  7.46996e-01
       H -2.48876e+00  3.50194e-01  3.92813e-01
       H -2.94990e+00  2.06146e+00 -1.55592e-02
4
# CELL(abcABC): 1000.00000  1000.00000  1000.00000    90.00000    90.00000    90.00000  Step:          49  Bead:       0 positions{angstrom}  cell{angstrom}
       O -3.15576e+00  1.07513e+00  3.50808e-01
       H -3.83943e+00  5.81491e-01  7.40724e-01
       H -2.48943e+00  3.67854e-01  3.89844e-01
       H -2.96431e+00  2.05528e+00 -1.34249e-02
4
# CELL(abcABC): 1000.00000  1000.00000  1000.00000    90.00000    90.00000    90.00000  Step:          50  Bead:       0 positions{angstrom}  cell{angstrom}
       O -3.15450e+00  1.07502e+00  3.51324e-01
       H -3.84196e+00  5.69654e-01  7.35908e-01
       H -2.49111e+00  3.86345e-01  3.85979e-01
       H -2.98011e+00  2.05029e+00 -1.29338e-02
4
# CELL(abcABC): 1000.00000  1000.00000  1000.00000    90.00000    90.00000    90.00000  Step:          51  Bead:       0 positions{angstrom}  cell{angstrom}
       O -3.15303e+00  1.07480e+00  3.51851e-01
       H -3.84980e+00  5.57141e-01  7.31907e-01
       H -2.49105e+00  4.05297e-01  3.81054e-01
       H -2.99576e+00  2.04739e+00 -1.23747e-02
4
# CELL(abcABC): 1000.00000  1000.00000  1000.00000    90.00000    90.00000    90.00000  Step:          52  Bead:       0 positions{angstrom}  cell{angstrom}
       O -3.15148e+00  1.07460e+00  3.52528e-01
       H -3.86158e+00  5.44968e-01  7.28436e-01
       H -2.48784e+00  4.22359e-01  3.74174e-01
       H -3.01170e+00  2.04567e+00 -1.27677e-02
4
# CELL(abcABC): 1000.00000  1000.00000  1000.00000    90.00000    90.00000    90.00000  Step:          53  Bead:       0 positions{angstrom}  cell{angstrom}
       O -3.15009e+00  1.07432e+00  3.53253e-01
       H -3.87460e+00  5.34811e-01  7.23789e-01
       H -2.48043e+00  4.38310e-01  3.67227e-01
       H -3.02816e+00  2.04431e+00 -1.26793e-02
4
# CELL(abcABC): 1000.00000  1000.00000  1000.00000    90.00000    90.00000    90.00000  Step:          54  Bead:       0 positions{angstrom}  cell{angstrom}
       O -3.14896e+00  1.07408e+00  3.53821e-01
       H -3.88793e+00  5.26018e-01  7.19357e-01
       H -2.46831e+00  4.51640e-01  3.60516e-01
       H -3.04495e+00  2.04354e+00 -1.05425e-02
4
# CELL(abcABC): 1000.00000  1000.00000  1000.00000    90.00000    90.00000    90.00000  Step:          55  Bead:       0 positions{angstrom}  cell{angstrom}
       O -3.14825e+00  1.07380e+00  3.54471e-01
       H -3.90058e+00  5.20244e-01  7.14368e-01
       H -2.45099e+00  4.61563e-01  3.54111e-01
       H -3.06096e+00  2.04395e+00 -9.46643e-03
4
# CELL(abcABC): 1000.00000  1000.00000  1000.00000    90.00000    90.00000    90.00000  Step:          56  Bead:       0 positions{angstrom}  cell{angstrom}
       O -3.14800e+00  1.07335e+00  3.55239e-01
       H -3.90858e+00  5.17979e-01  7.08358e-01
       H -2.42971e+00  4.68237e-01  3.46417e-01
       H -3.07814e+00  2.04656e+00 -7.95461e-03
4
# CELL(abcABC): 1000.00000  1000.00000  1000.00000    90.00000    90.00000    90.00000  Step:          57  Bead:       0 positions{angstrom}  cell{angstrom}
       O -3.14810e+00  1.07269e+00  3.56065e-01
       H -3.91176e+00  5.19535e-01  7.01218e-01
       H -2.40695e+00  4.72488e-01  3.39696e-01
       H -3.09617e+00  2.05126e+00 -7.21409e-03
4
# CELL(abcABC): 1000.00000  1000.00000  1000.00000    90.00000    90.00000    90.00000  Step:          58  Bead:       0 positions{angstrom}  cell{angstrom}
       O -3.14852e+00  1.07186e+00  3.56977e-01
       H -3.91040e+00  5.23222e-01  6.92464e-01
       H -2.38311e+00  4.75922e-01  3.33816e-01
       H -3.11463e+00  2.05742e+00 -7.04931e-03
4
# CELL(abcABC): 1000.00000  1000.00000  1000.00000    90.00000    90.00000    90.00000  Step:          59  Bead:       0 positions{angstrom}  cell{angstrom}
       O -3.14913e+00  1.07074e+00  3.57819e-01
       H -3.90490e+00  5.29240e-01  6.82725e-01
       H -2.36008e+00  4.80176e-01  3.29988e-01
       H -3.13351e+00  2.06486e+00 -6.84494e-03
4
# CELL(abcABC): 1000.00000  1000.00000  1000.00000    90.00000    90.00000    90.00000  Step:          60  Bead:       0 positions{angstrom}  cell{angstrom}
       O -3.14976e+00  1.06947e+00  3.58705e-01
       H -3.89800e+00  5.36136e-01  6.72530e-01
       H -2.33897e+00  4.85015e-01  3.25279e-01
       H -3.15149e+00  2.07334e+00 -6.00693e-03
4
# CELL(abcABC): 1000.00000  1000.00000  1000.00000    90.00000    90.00000    90.00000  Step:          61  Bead:       0 positions{angstrom}  cell{angstrom}
       O -3.15033e+00  1.06808e+00  3.59563e-01
       H -3.88884e+00  5.42605e-01  6.62161e-01
       H -2.32063e+00  4.91406e-01  3.20159e-01
       H -3.16994e+00  2.08241e+00 -4.14324e-03
4
# CELL(abcABC): 1000.00000  1000.00000  1000.00000    90.00000    90.00000    90.00000  Step:          62  Bead:       0 positions{angstrom}  cell{angstrom}
       O -3.15052e+00  1.06673e+00  3.60440e-01
       H -3.88050e+00  5.47018e-01  6.52121e-01
       H -2.30856e+00  4.99400e-01  3.15548e-01
       H -3.18736e+00  2.09157e+00 -3.40721e-03
4
# CELL(abcABC): 1000.00000  1000.00000  1000.00000    90.00000    90.00000    90.00000  Step:          63  Bead:       0 positions{angstrom}  cell{angstrom}
       O -3.15023e+00  1.06530e+00  3.60997e-01
       H -3.87322e+00  5.49984e-01  6.43950e-01
       H -2.30246e+00  5.08702e-01  3.11872e-01
       H -3.20541e+00  2.10200e+00 -4.08836e-04
4
# CELL(abcABC): 1000.00000  1000.00000  1000.00000    90.00000    90.00000    90.00000  Step:          64  Bead:       0 positions{angstrom}  cell{angstrom}
       O -3.14946e+00  1.06399e+00  3.61306e-01
       H -3.86727e+00  5.49839e-01  6.38671e-01
       H -2.30172e+00  5.19540e-01  3.09380e-01
       H -3.22421e+00  2.11198e+00  2.46155e-03
4
# CELL(abcABC): 1000.00000  1000.00000  1000.00000    90.00000    90.00000    90.00000  Step:          65  Bead:       0 positions{angstrom}  cell{angstrom}
       O -3.14819e+00  1.06285e+00  3.61404e-01
       H -3.86538e+00  5.46332e-01  6.34505e-01
       H -2.30557e+00  5.32904e-01  3.07886e-01
       H -3.24249e+00  2.12032e+00  6.56620e-03
4
# CELL(abcABC): 1000.00000  1000.00000  1000.00000    90.00000    90.00000    90.00000  Step:          66  Bead:       0 positions{angstrom}  cell{angstrom}
       O -3.14649e+00  1.06188e+00  3.61175e-01
       H -3.86684e+00  5.41427e-01  6.33199e-01
       H -2.31351e+00  5.45348e-01  3.07822e-01
       H -3.26010e+00  2.12820e+00  1.15679e-02
4
# CELL(abcABC): 1000.00000  1000.00000  1000.00000    90.00000    90.00000    90.00000  Step:          67  Bead:       0 positions{angstrom}  cell{angstrom}
       O -3.14441e+00  1.06130e+00  3.60726e-01
       H -3.87068e+00  5.32220e-01  6.32995e-01
       H -2.32369e+00  5.57528e-01  3.09305e-01
       H -3.27907e+00  2.13443e+00  1.74145e-02
4
# CELL(abcABC): 1000.00000  1000.00000  1000.00000    90.00000    90.00000    90.00000  Step:          68  Bead:       0 positions{angstrom}  cell{angstrom}
       O -3.14225e+00  1.06101e+00  3.60247e-01
       H -3.87528e+00  5.20182e-01  6.33897e-01
       H -2.33435e+00  5.68372e-01  3.10081e-01
       H -3.29799e+00  2.14019e+00  2.33425e-02
4
# CELL(abcABC): 1000.00000  1000.00000  1000.00000    90.00000    90.00000    90.00000  Step:          69  Bead:       0 positions{angstrom}  cell{angstrom}
       O -3.14016e+00  1.06118e+00  3.59462e-01
       H -3.88018e+00  5.05044e-01  6.37244e-01
       H -2.34442e+00  5.76786e-01  3.12455e-01
       H -3.31625e+00  2.14412e+00  3.00851e-02
4
# CELL(abcABC): 1000.00000  1000.00000  1000.00000    90.00000    90.00000    90.00000  Step:          70  Bead:       0 positions{angstrom}  cell{angstrom}
       O -3.13858e+00  1.06157e+00  3.58609e-01
       H -3.88303e+00  4.90059e-01  6.39835e-01
       H -2.35091e+00  5.82426e-01  3.15053e-01
       H -3.33196e+00  2.14741e+00  3.84280e-02
4
# CELL(abcABC): 1000.00000  1000.00000  1000.00000    90.00000    90.00000    90.00000  Step:          71  Bead:       0 positions{angstrom}  cell{angstrom}
       O -3.13750e+00  1.06234e+00  3.57799e-01
       H -3.88370e+00  4.74451e-01  6.40695e-01
       H -2.35292e+00  5.83347e-01  3.17564e-01
       H -3.34647e+00  2.14976e+00  4.79275e-02
4
# CELL(abcABC): 1000.00000  1000.00000  1000.00000    90.00000    90.00000    90.00000  Step:          72  Bead:       0 positions{angstrom}  cell{angstrom}
       O -3.13710e+00  1.06329e+00  3.56946e-01
       H -3.88028e+00  4.60352e-01  6.41091e-01
       H -2.34927e+00  5.80172e-01  3.21094e-01
       H -3.35996e+00  2.15206e+00  5.75371e-02
4
# CELL(abcABC): 1000.00000  1000.00000  1000.00000    90.00000    90.00000    90.00000  Step:          73  Bead:       0 positions{angstrom}  cell{angstrom}
       O -3.13728e+00  1.06445e+00  3.56190e-01
       H -3.87287e+00  4.47837e-01  6.40367e-01
       H -2.34077e+00  5.73741e-01  3.24912e-01
       H -3.37290e+00  2.15259e+00  6.64420e-02
4
# CELL(abcABC): 1000.00000  1000.00000  1000.00000    90.00000    90.00000    90.00000  Step:          74  Bead:       0 positions{angstrom}  cell{angstrom}
       O -3.13804e+00  1.06563e+00  3.55630e-01
       H -3.86103e+00  4.37394e-01  6.37290e-01
       H -2.32891e+00  5.64884e-01  3.27839e-01
       H -3.38458e+00  2.15305e+00  7.54773e-02
4
# CELL(abcABC): 1000.00000  1000.00000  1000.00000    90.00000    90.00000    90.00000  Step:          75  Bead:       0 positions{angstrom}  cell{angstrom}
       O -3.13902e+00  1.06685e+00  3.55110e-01
       H -3.84603e+00  4.27900e-01  6.32694e-01
       H -2.31625e+00  5.54420e-01  3.31801e-01
       H -3.39666e+00  2.15376e+00  8.43718e-02
4
# CELL(abcABC): 1000.00000  1000.00000  1000.00000    90.00000    90.00000    90.00000  Step:          76  Bead:       0 positions{angstrom}  cell{angstrom}
       O -3.14030e+00  1.06784e+00  3.54496e-01
       H -3.82727e+00  4.20342e-01  6.28415e-01
       H -2.30425e+00  5.44440e-01  3.36118e-01
       H -3.40719e+00  2.15557e+00  9.40706e-02
4
# CELL(abcABC): 1000.00000  1000.00000  1000.00000    90.00000    90.00000    90.00000  Step:          77  Bead:       0 positions{angstrom}  cell{angstrom}
       O -3.14152e+00  1.06865e+00  3.53861e-01
       H -3.80674e+00  4.14860e-01  6.23706e-01
       H -2.29486e+00  5.36443e-01  3.41262e-01
       H -3.41766e+00  2.15619e+00  1.03716e-01
4
# CELL(abcABC): 1000.00000  1000.00000  1000.00000    90.00000    90.00000    90.00000  Step:          78  Bead:       0 positions{angstrom}  cell{angstrom}
       O -3.14257e+00  1.06930e+00  3.53388e-01
       H -3.78685e+00  4.09093e-01  6.18031e-01
       H -2.28786e+00  5.31717e-01  3.46281e-01
       H -3.42798e+00  2.15626e+00  1.11885e-01
4
# CELL(abcABC): 1000.00000  1000.00000  1000.00000    90.00000    90.00000    90.00000  Step:          79  Bead:       0 positions{angstrom}  cell{angstrom}
       O -3.14342e+00  1.06991e+00  3.52866e-01
       H -3.76839e+00  4.03410e-01  6.13991e-01
       H -2.28334e+00  5.29421e-01  3.51114e-01
       H -3.43739e+00  2.15468e+00  1.19376e-01
4
# CELL(abcABC): 1000.00000  1000.00000  1000.00000    90.00000    90.00000    90.00000  Step:          80  Bead:       0 positions{angstrom}  cell{angstrom}
       O -3.14403e+00  1.07039e+00  3.52209e-01
       H -3.75145e+00  3.96819e-01  6.10678e-01
       H -2.28240e+00  5.30570e-01  3.56897e-01
       H -3.44563e+00  2.15237e+00  1.27340e-01
4
# CELL(abcABC): 1000.00000  1000.00000  1000.00000    90.00000    90.00000    90.00000  Step:          81  Bead:       0 positions{angstrom}  cell{angstrom}
       O -3.14431e+00  1.07064e+00  3.51580e-01
       H -3.73526e+00  3.89331e-01  6.07729e-01
       H -2.28582e+00  5.37497e-01  3.62652e-01
       H -3.45395e+00  2.14908e+00  1.34521e-01
4
# CELL(abcABC): 1000.00000  1000.00000  1000.00000    90.00000    90.00000    90.00000  Step:          82  Bead:       0 positions{angstrom}  cell{angstrom}
       O -3.14419e+00  1.07094e+00  3.50818e-01
       H -3.72195e+00  3.79031e-01  6.06725e-01
       H -2.29200e+00  5.47015e-01  3.68005e-01
       H -3.46298e+00  2.14504e+00  1.42259e-01
4
# CELL(abcABC): 1000.00000  1000.00000  1000.00000    90.00000    90.00000    90.00000  Step:          83  Bead:       0 positions{angstrom}  cell{angstrom}
       O -3.14375e+00  1.07112e+00  3.50031e-01
       H -3.71238e+00  3.66980e-01  6.07315e-01
       H -2.30027e+00  5.60371e-01  3.72910e-01
       H -3.47118e+00  2.14092e+00  1.49261e-01
4
# CELL(abcABC): 1000.00000  1000.00000  1000.00000    90.00000    90.00000    90.00000  Step:          84  Bead:       0 positions{angstrom}  cell{angstrom}
       O -3.14305e+00  1.07124e+00  3.49271e-01
       H -3.70527e+00  3.52541e-01  6.07840e-01
       H -2.31023e+00  5.76743e-01  3.77147e-01
       H -3.47948e+00  2.13711e+00  1.56568e-01
4
# CELL(abcABC): 1000.00000  1000.00000  1000.00000    90.00000    90.00000    90.00000  Step:          85  Bead:       0 positions{angstrom}  cell{angstrom}