4
# CELL(abcABC): 1000.00000  1000.00000  1000.00000    90.00000    90.00000    90.00000  Step:           0  Bead:       0 positions{angstrom}  cell{angstrom}
       O -3.15940e+00  1.06192e+00  3.58097e-01
       H -2.96451e+00  1.53007e+00  1.12479e+00
       H -2.88109e+00  1.12544e-01  3.51078e-01
       H -3.38999e+00  1.57180e+00 -4.74441e-01
4
# CELL(abcABC): 1000.00000  1000.00000  1000.00000    90.00000    90.00000    90.00000  Step:           1  Bead:       0 positions{angstrom}  cell{angstrom}
       O -3.15777e+00  1.06207e+00  3.57283e-01
       H -2.97343e+00  1.52452e+00  1.13228e+00
       H -2.88112e+00  1.13068e-01  3.52357e-01
       H -3.40695e+00  1.57440e+00 -4.70292e-01
4
# CELL(abcABC): 1000.00000  1000.00000  1000.00000    90.00000    90.00000    90.00000  Step:           2  Bead:       0 positions{angstrom}  cell{angstrom}
       O -3.15631e+00  1.06196e+00  3.55946e-01
       H -2.98121e+00  1.52229e+00  1.14649e+00
       H -2.87996e+00  1.15865e-01  3.53837e-01
       H -3.42354e+00  1.57561e+00 -4.64756e-01
4
# CELL(abcABC): 1000.00000  1000.00000  1000.00000    90.00000    90.00000    90.00000  Step:           3  Bead:       0 positions{angstrom}  cell{angstrom}
       O -3.15486e+00  1.06172e+00  3.54124e-01
       H -2.98760e+00  1.52111e+00  1.16725e+00
       H -2.87947e+00  1.21762e-01  3.56111e-01
       H -3.44060e+00  1.57470e+00 -4.58864e-01
4
# CELL(abcABC): 1000.00000  1000.00000  1000.00000    90.00000    90.00000    90.00000  Step:           4  Bead:       0 positions{angstrom}  cell{angstrom}
       O -3.15346e+00  1.06150e+00  3.52139e-01
       H -2.99397e+00  1.51964e+00  1.18941e+00
       H -2.87862e+00  1.29682e-01  3.58036e-01
       H -3.45734e+00  1.57176e+00 -4.51450e-01
4
# CELL(abcABC): 1000.00000  1000.00000  1000.00000    90.00000    90.00000    90.00000  Step:           5  Bead:       0 positions{angstrom}  cell{angstrom}
       O -3.15196e+00  1.06127e+00  3.50122e-01
       H -3.00138e+00  1.51790e+00  1.21156e+00
       H -2.87851e+00  1.39239e-01  3.60995e-01
       H -3.47388e+00  1.56765e+00 -4.44541e-01
4
# CELL(abcABC): 1000.00000  1000.00000  1000.00000    90.00000    90.00000    90.00000  Step:           6  Bead:       0 positions{angstrom}  cell{angstrom}
       O -3.15033e+00  1.06135e+00  3.48221e-01
       H -3.00938e+00  1.51513e+00  1.23100e+00
       H -2.87886e+00  1.46489e-01  3.62908e-01
       H -3.49136e+00  1.56191e+00 -4.35722e-01
4
# CELL(abcABC): 1000.00000  1000.00000  1000.00000    90.00000    90.00000    90.00000  Step:           7  Bead:       0 positions{angstrom}  cell{angstrom}
       O -3.14872e+00  1.06166e+00  3.46330e-01
       H -3.01684e+00  1.51039e+00  1.24842e+00
       H -2.87901e+00  1.51629e-01  3.65508e-01
       H -3.50922e+00  1.55656e+00 -4.25717e-01
4
# CELL(abcABC): 1000.00000  1000.00000  1000.00000    90.00000    90.00000    90.00000  Step:           8  Bead:       0 positions{angstrom}  cell{angstrom}
       O -3.14718e+00  1.06237e+00  3.44789e-01
       H -3.02431e+00  1.50326e+00  1.26070e+00
       H -2.87763e+00  1.53296e-01  3.67292e-01
       H -3.52771e+00  1.55070e+00 -4.15320e-01
4
# CELL(abcABC): 1000.00000  1000.00000  1000.00000    90.00000    90.00000    90.00000  Step:           9  Bead:       0 positions{angstrom}  cell{angstrom}
       O -3.14563e+00  1.06357e+00  3.43477e-01
       H -3.03271e+00  1.49275e+00  1.26894e+00
       H -2.87465e+00  1.52297e-01  3.69425e-01
       H -3.54676e+00  1.54326e+00 -4.04874e-01
4
# CELL(abcABC): 1000.00000  1000.00000  1000.00000    90.00000    90.00000    90.00000  Step:          10  Bead:       0 positions{angstrom}  cell{angstrom}
       O -3.14404e+00  1.06504e+00  3.42679e-01
       H -3.04183e+00  1.47978e+00  1.27103e+00
       H -2.87106e+00  1.49415e-01  3.70477e-01
       H -3.56648e+00  1.53566e+00 -3.95351e-01
4
# CELL(abcABC): 1000.00000  1000.00000  1000.00000    90.00000    90.00000    90.00000  Step:          11  Bead:       0 positions{angstrom}  cell{angstrom}
       O -3.14239e+00  1.06681e+00  3.42415e-01
       H -3.05135e+00  1.46550e+00  1.26669e+00
       H -2.86851e+00  1.44255e-01  3.70653e-01
       H -3.58581e+00  1.52709e+00 -3.86990e-01
4
# CELL(abcABC): 1000.00000  1000.00000  1000.00000    90.00000    90.00000    90.00000  Step:          12  Bead:       0 positions{angstrom}  cell{angstrom}
       O -3.14080e+00  1.06881e+00  3.42574e-01
       H -3.05999e+00  1.44967e+00  1.25779e+00
       H -2.86610e+00  1.36723e-01  3.69267e-01
       H -3.60479e+00  1.51871e+00 -3.79222e-01
4
# CELL(abcABC): 1000.00000  1000.00000  1000.00000    90.00000    90.00000    90.00000  Step:          13  Bead:       0 positions{angstrom}  cell{angstrom}
       O -3.13921e+00  1.07087e+00  3.42976e-01
       H -3.06877e+00  1.43394e+00  1.24636e+00
       H -2.86282e+00  1.29001e-01  3.67251e-01
       H -3.62448e+00  1.50941e+00 -3.72164e-01
4
# CELL(abcABC): 1000.00000  1000.00000  1000.00000    90.00000    90.00000    90.00000  Step:          14  Bead:       0 positions{angstrom}  cell{angstrom}
       O -3.13762e+00  1.07283e+00  3.43478e-01
       H -3.07620e+00  1.41842e+00  1.23453e+00
       H -2.85977e+00  1.22960e-01  3.64536e-01
       H -3.64530e+00  1.49988e+00 -3.65585e-01
4
# CELL(abcABC): 1000.00000  1000.00000  1000.00000    90.00000    90.00000    90.00000  Step:          15  Bead:       0 positions{angstrom}  cell{angstrom}
       O -3.13591e+00  1.07446e+00  3.43744e-01
       H -3.08551e+00  1.40394e+00  1.22630e+00
       H -2.85832e+00  1.19421e-01  3.61333e-01
       H -3.66470e+00  1.49193e+00 -3.58385e-01
4
# CELL(abcABC): 1000.00000  1000.00000  1000.00000    90.00000    90.00000    90.00000  Step:          16  Bead:       0 positions{angstrom}  cell{angstrom}
       O -3.13417e+00  1.07573e+00  3.43851e-01
       H -3.09367e+00  1.39145e+00  1.22116e+00
       H -2.85819e+00  1.19503e-01  3.57518e-01
       H -3.68426e+00  1.48430e+00 -3.51116e-01
4
# CELL(abcABC): 1000.00000  1000.00000  1000.00000    90.00000    90.00000    90.00000  Step:          17  Bead:       0 positions{angstrom}  cell{angstrom}
       O -3.13227e+00  1.07663e+00  3.43683e-01
       H -3.10104e+00  1.38236e+00  1.22116e+00
       H -2.86028e+00  1.22941e-01  3.52063e-01
       H -3.70485e+00  1.47554e+00 -3.42999e-01
4
# CELL(abcABC): 1000.00000  1000.00000  1000.00000    90.00000    90.00000    90.00000  Step:          18  Bead:       0 positions{angstrom}  cell{angstrom}
       O -3.13029e+00  1.07712e+00  3.43194e-01
       H -3.10942e+00  1.37723e+00  1.22683e+00
       H -2.86235e+00  1.28747e-01  3.45858e-01
       H -3.72594e+00  1.46724e+00 -3.34701e-01
4
# CELL(abcABC): 1000.00000  1000.00000  1000.00000    90.00000    90.00000    90.00000  Step:          19  Bead:       0 positions{angstrom}  cell{angstrom}
       O -3.12835e+00  1.07737e+00  3.42391e-01
       H -3.11740e+00  1.37482e+00  1.23789e+00
       H -2.86606e+00  1.35692e-01  3.38340e-01
       H -3.74496e+00  1.45869e+00 -3.25500e-01
4
# CELL(abcABC): 1000.00000  1000.00000  1000.00000    90.00000    90.00000    90.00000  Step:          20  Bead:       0 positions{angstrom}  cell{angstrom}
       O -3.12640e+00  1.07749e+00  3.41441e-01
       H -3.12531e+00  1.37510e+00  1.25096e+00
       H -2.87128e+00  1.43550e-01  3.30459e-01
       H -3.76275e+00  1.44854e+00 -3.15601e-01
4
# CELL(abcABC): 1000.00000  1000.00000  1000.00000    90.00000    90.00000    90.00000  Step:          21  Bead:       0 positions{angstrom}  cell{angstrom}
       O -3.12456e+00  1.07757e+00  3.40476e-01
       H -3.13362e+00  1.37638e+00  1.26439e+00
       H -2.87506e+00  1.51680e-01  3.22990e-01
       H -3.77988e+00  1.43794e+00 -3.06247e-01
4
# CELL(abcABC): 1000.00000  1000.00000  1000.00000    90.00000    90.00000    90.00000  Step:          22  Bead:       0 positions{angstrom}  cell{angstrom}
       O -3.12287e+00  1.07764e+00  3.39635e-01
       H -3.14293e+00  1.37758e+00  1.27854e+00
       H -2.87638e+00  1.58635e-01  3.13434e-01
       H -3.79612e+00  1.42870e+00 -2.97493e-01
4
# CELL(abcABC): 1000.00000  1000.00000  1000.00000    90.00000    90.00000    90.00000  Step:          23  Bead:       0 positions{angstrom}  cell{angstrom}
       O -3.12135e+00  1.07787e+00  3.39116e-01
       H -3.15188e+00  1.37946e+00  1.29024e+00
       H -2.87601e+00  1.63704e-01  3.03835e-01
       H -3.81175e+00  1.41811e+00 -2.91352e-01
4
# CELL(abcABC): 1000.00000  1000.00000  1000.00000    90.00000    90.00000    90.00000  Step:          24  Bead:       0 positions{angstrom}  cell{angstrom}
       O -3.12003e+00  1.07824e+00  3.38808e-01
       H -3.15989e+00  1.37998e+00  1.29872e+00
       H -2.87410e+00  1.66832e-01  2.94137e-01
       H -3.82659e+00  1.40848e+00 -2.85248e-01
4
# CELL(abcABC): 1000.00000  1000.00000  1000.00000    90.00000    90.00000    90.00000  Step:          25  Bead:       0 positions{angstrom}  cell{angstrom}
       O -3.11888e+00  1.07899e+00  3.38648e-01
       H -3.16745e+00  1.37882e+00  1.30407e+00
       H -2.87117e+00  1.66012e-01  2.84373e-01
       H -3.84015e+00  1.39862e+00 -2.78292e-01
4
# CELL(abcABC): 1000.00000  1000.00000  1000.00000    90.00000    90.00000    90.00000  Step:          26  Bead:       0 positions{angstrom}  cell{angstrom}
       O -3.11795e+00  1.08009e+00  3.38708e-01
       H -3.17440e+00  1.37608e+00  1.30439e+00
       H -2.86658e+00  1.61939e-01  2.74288e-01
       H -3.85260e+00  1.38792e+00 -2.69490e-01
4
# CELL(abcABC): 1000.00000  1000.00000  1000.00000    90.00000    90.00000    90.00000  Step:          27  Bead:       0 positions{angstrom}  cell{angstrom}
       O -3.11734e+00  1.08140e+00  3.39021e-01
       H -3.18078e+00  1.37336e+00  1.29981e+00
       H -2.86078e+00  1.54953e-01  2.63910e-01
       H -3.86164e+00  1.37694e+00 -2.59494e-01
4
# CELL(abcABC): 1000.00000  1000.00000  1000.00000    90.00000    90.00000    90.00000  Step:          28  Bead:       0 positions{angstrom}  cell{angstrom}
       O -3.11689e+00  1.08282e+00  3.39454e-01
       H -3.18740e+00  1.36825e+00  1.29139e+00
       H -2.85351e+00  1.47335e-01  2.54044e-01
       H -3.86942e+00  1.36707e+00 -2.48067e-01
4
# CELL(abcABC): 1000.00000  1000.00000  1000.00000    90.00000    90.00000    90.00000  Step:          29  Bead:       0 positions{angstrom}  cell{angstrom}
       O -3.11666e+00  1.08420e+00  3.40016e-01
       H -3.19247e+00  1.36283e+00  1.27882e+00
       H -2.84667e+00  1.40310e-01  2.44648e-01
       H -3.87493e+00  1.35755e+00 -2.35029e-01
4
# CELL(abcABC): 1000.00000  1000.00000  1000.00000    90.00000    90.00000    90.00000  Step:          30  Bead:       0 positions{angstrom}  cell{angstrom}
       O -3.11658e+00  1.08536e+00  3.40562e-01
       H -3.19630e+00  1.35815e+00  1.26579e+00
       H -2.83990e+00  1.35129e-01  2.36350e-01
       H -3.87911e+00  1.34910e+00 -2.22375e-01
4
# CELL(abcABC): 1000.00000  1000.00000  1000.00000    90.00000    90.00000    90.00000  Step:          31  Bead:       0 positions{angstrom}  cell{angstrom}
       O -3.11675e+00  1.08617e+00  3.41088e-01
       H -3.19774e+00  1.35381e+00  1.25339e+00
       H -2.83267e+00  1.33931e-01  2.28283e-01
       H -3.88210e+00  1.34180e+00 -2.10257e-01
4
# CELL(abcABC): 1000.00000  1000.00000  1000.00000    90.00000    90.00000    90.00000  Step:          32  Bead:       0 positions{angstrom}  cell{angstrom}
       O -3.11699e+00  1.08676e+00  3.41255e-01
       H -3.19936e+00  1.34818e+00  1.24380e+00
       H -2.82523e+00  1.37417e-01  2.22421e-01
       H -3.88415e+00  1.33446e+00 -1.97451e-01
4
# CELL(abcABC): 1000.00000  1000.00000  1000.00000    90.00000    90.00000    90.00000  Step:          33  Bead:       0 positions{angstrom}  cell{angstrom}
       O -3.11726e+00  1.08716e+00  3.41060e-01
       H -3.20090e+00  1.34276e+00  1.23913e+00
       H -2.81783e+00  1.43399e-01  2.18085e-01
       H -3.88569e+00  1.32766e+00 -1.85346e-01
4
# CELL(abcABC): 1000.00000  1000.00000  1000.00000    90.00000    90.00000    90.00000  Step:          34  Bead:       0 positions{angstrom}  cell{angstrom}
       O -3.11742e+00  1.08726e+00  3.40687e-01
       H -3.20144e+00  1.33817e+00  1.23876e+00
       H -2.81263e+00  1.52128e-01  2.15093e-01
       H -3.88786e+00  1.32189e+00 -1.76073e-01
4
# CELL(abcABC): 1000.00000  1000.00000  1000.00000    90.00000    90.00000    90.00000  Step:          35  Bead:       0 positions{angstrom}  cell{angstrom}
       O -3.11762e+00  1.08704e+00  3.40065e-01
       H -3.19970e+00  1.33447e+00  1.24220e+00
       H -2.80891e+00  1.64409e-01  2.13677e-01
       H -3.89019e+00  1.31674e+00 -1.68215e-01
4
# CELL(abcABC): 1000.00000  1000.00000  1000.00000    90.00000    90.00000    90.00000  Step:          36  Bead:       0 positions{angstrom}  cell{angstrom}
       O -3.11786e+00  1.08654e+00  3.39274e-01
       H -3.19710e+00  1.33160e+00  1.24911e+00
       H -2.80499e+00  1.79522e-01  2.12111e-01
       H -3.89287e+00  1.31256e+00 -1.61006e-01
4
# CELL(abcABC): 1000.00000  1000.00000  1000.00000    90.00000    90.00000    90.00000  Step:          37  Bead:       0 positions{angstrom}  cell{angstrom}
       O -3.11820e+00  1.08599e+00  3.38279e-01
       H -3.19314e+00  1.33009e+00  1.26071e+00
       H -2.80000e+00  1.94074e-01  2.10446e-01
       H -3.89638e+00  1.30825e+00 -1.55153e-01
4
# CELL(abcABC): 1000.00000  1000.00000  1000.00000    90.00000    90.00000    90.00000  Step:          38  Bead:       0 positions{angstrom}  cell{angstrom}
       O -3.11847e+00  1.08546e+00  3.37481e-01
       H -3.18931e+00  1.32849e+00  1.27241e+00
       H -2.79376e+00  2.06010e-01  2.08578e-01
       H -3.90223e+00  1.30624e+00 -1.52313e-01
4
# CELL(abcABC): 1000.00000  1000.00000  1000.00000    90.00000    90.00000    90.00000  Step:          39  Bead:       0 positions{angstrom}  cell{angstrom}
       O -3.11903e+00  1.08520e+00  3.36711e-01
       H -3.18379e+00  1.32607e+00  1.28441e+00
       H -2.78539e+00  2.13994e-01  2.07437e-01
       H -3.90725e+00  1.30486e+00 -1.50952e-01
4
# CELL(abcABC): 1000.00000  1000.00000  1000.00000    90.00000    90.00000    90.00000  Step:          40  Bead:       0 positions{angstrom}  cell{angstrom}
       O -3.11979e+00  1.08509e+00  3.35971e-01
       H -3.17722e+00  1.32327e+00  1.29581e+00
       H -2.77470e+00  2.18673e-01  2.07602e-01
       H -3.91236e+00  1.30467e+00 -1.50771e-01
4
# CELL(abcABC): 1000.00000  1000.00000  1000.00000    90.00000    90.00000    90.00000  Step:          41  Bead:       0 positions{angstrom}  cell{angstrom}
       O -3.12074e+00  1.08518e+00  3.35454e-01
       H -3.16993e+00  1.32051e+00  1.30407e+00
       H -2.76126e+00  2.20205e-01  2.07697e-01
       H -3.91812e+00  1.30449e+00 -1.50921e-01
4
# CELL(abcABC): 1000.00000  1000.00000  1000.00000    90.00000    90.00000    90.00000  Step:          42  Bead:       0 positions{angstrom}  cell{angstrom}
       O -3.12197e+00  1.08560e+00  3.35297e-01
       H -3.16022e+00  1.31509e+00  1.30854e+00
       H -2.74560e+00  2.18792e-01  2.07793e-01
       H -3.92394e+00  1.30458e+00 -1.52994e-01
4
# CELL(abcABC): 1000.00000  1000.00000  1000.00000    90.00000    90.00000    90.00000  Step:          43  Bead:       0 positions{angstrom}  cell{angstrom}
       O -3.12334e+00  1.08611e+00  3.35460e-01
       H -3.14991e+00  1.30977e+00  1.30895e+00
       H -2.72830e+00  2.16786e-01  2.07821e-01
       H -3.92974e+00  1.30390e+00 -1.56015e-01
4
# CELL(abcABC): 1000.00000  1000.00000  1000.00000    90.00000    90.00000    90.00000  Step:          44  Bead:       0 positions{angstrom}  cell{angstrom}
       O -3.12482e+00  1.08672e+00  3.35902e-01
       H -3.13865e+00  1.30321e+00  1.30517e+00
       H -2.70998e+00  2.13645e-01  2.07152e-01
       H -3.93590e+00  1.30393e+00 -1.58592e-01
4
# CELL(abcABC): 1000.00000  1000.00000  1000.00000    90.00000    90.00000    90.00000  Step:          45  Bead:       0 positions{angstrom}  cell{angstrom}
       O -3.12628e+00  1.08733e+00  3.36626e-01
       H -3.12737e+00  1.29651e+00  1.29780e+00
       H -2.69069e+00  2.10457e-01  2.05519e-01
       H -3.94320e+00  1.30413e+00 -1.61081e-01
4
# CELL(abcABC): 1000.00000  1000.00000  1000.00000    90.00000    90.00000    90.00000  Step:          46  Bead:       0 positions{angstrom}  cell{angstrom}
       O -3.12784e+00  1.08784e+00  3.37519e-01
       H -3.11571e+00  1.29052e+00  1.28811e+00
       H -2.67194e+00  2.08255e-01  2.03321e-01
       H -3.94885e+00  1.30415e+00 -1.63357e-01
4
# CELL(abcABC): 1000.00000  1000.00000  1000.00000    90.00000    90.00000    90.00000  Step:          47  Bead:       0 positions{angstrom}  cell{angstrom}
       O -3.12940e+00  1.08804e+00  3.38569e-01
       H -3.10364e+00  1.28477e+00  1.27814e+00
       H -2.65413e+00  2.09166e-01  2.00200e-01
       H -3.95410e+00  1.30592e+00 -1.66943e-01
4
# CELL(abcABC): 1000.00000  1000.00000  1000.00000    90.00000    90.00000    90.00000  Step:          48  Bead:       0 positions{angstrom}  cell{angstrom}
       O -3.13092e+00  1.08803e+00  3.39533e-01
       H -3.09075e+00  1.27890e+00  1.26943e+00
       H -2.63794e+00  2.14265e-01  1.96273e-01
       H -3.95894e+00  1.30672e+00 -1.69610e-01
4
# CELL(abcABC): 1000.00000  1000.00000  1000.00000    90.00000    90.00000    90.00000  Step:          49  Bead:       0 positions{angstrom}  cell{angstrom}
       O -3.13247e+00  1.08771e+00  3.40209e-01
       H -3.07751e+00  1.27383e+00  1.26364e+00
       H -2.62253e+00  2.22988e-01  1.92330e-01
       H -3.96303e+00  1.30823e+00 -1.70597e-01
4
# CELL(abcABC): 1000.00000  1000.00000  1000.00000    90.00000    90.00000    90.00000  Step:          50  Bead:       0 positions{angstrom}  cell{angstrom}
       O -3.13381e+00  1.08711e+00  3.40746e-01
       H -3.06437e+00  1.27040e+00  1.26082e+00
       H -2.61102e+00  2.34897e-01  1.88215e-01
       H -3.96634e+00  1.30924e+00 -1.72187e-01
4
# CELL(abcABC): 1000.00000  1000.00000  1000.00000    90.00000    90.00000    90.00000  Step:          51  Bead:       0 positions{angstrom}  cell{angstrom}
       O -3.13513e+00  1.08618e+00  3.41033e-01
       H -3.05147e+00  1.26823e+00  1.26125e+00
       H -2.60206e+00  2.50683e-01  1.83527e-01
       H -3.96731e+00  1.31041e+00 -1.72490e-01
4
# CELL(abcABC): 1000.00000  1000.00000  1000.00000    90.00000    90.00000    90.00000  Step:          52  Bead:       0 positions{angstrom}  cell{angstrom}
       O -3.13639e+00  1.08506e+00  3.41191e-01
       H -3.03898e+00  1.26754e+00  1.26521e+00
       H -2.59539e+00  2.68780e-01  1.77034e-01
       H -3.96643e+00  1.31072e+00 -1.72463e-01
4
# CELL(abcABC): 1000.00000  1000.00000  1000.00000    90.00000    90.00000    90.00000  Step:          53  Bead:       0 positions{angstrom}  cell{angstrom}
       O -3.13765e+00  1.08371e+00  3.41138e-01
       H -3.02613e+00  1.26894e+00  1.27105e+00
       H -2.59062e+00  2.90247e-01  1.70259e-01
       H -3.96410e+00  1.30930e+00 -1.70689e-01
4
# CELL(abcABC): 1000.00000  1000.00000  1000.00000    90.00000    90.00000    90.00000  Step:          54  Bead:       0 positions{angstrom}  cell{angstrom}
       O -3.13888e+00  1.08234e+00  3.40733e-01
       H -3.01376e+00  1.27084e+00  1.27971e+00
       H -2.58714e+00  3.13091e-01  1.63051e-01
       H -3.96042e+00  1.30640e+00 -1.65716e-01
4
# CELL(abcABC): 1000.00000  1000.00000  1000.00000    90.00000    90.00000    90.00000  Step:          55  Bead:       0 positions{angstrom}  cell{angstrom}
       O -3.14018e+00  1.08098e+00  3.40323e-01
       H -3.00264e+00  1.27398e+00  1.28951e+00
       H -2.58339e+00  3.35167e-01  1.54949e-01
       H -3.95470e+00  1.30265e+00 -1.60896e-01
4
# CELL(abcABC): 1000.00000  1000.00000  1000.00000    90.00000    90.00000    90.00000  Step:          56  Bead:       0 positions{angstrom}  cell{angstrom}
       O -3.14159e+00  1.07971e+00  3.40069e-01
       H -2.99024e+00  1.27817e+00  1.29885e+00
       H -2.57860e+00  3.54608e-01  1.43814e-01
       H -3.94944e+00  1.29922e+00 -1.55067e-01
4
# CELL(abcABC): 1000.00000  1000.00000  1000.00000    90.00000    90.00000    90.00000  Step:          57  Bead:       0 positions{angstrom}  cell{angstrom}
       O -3.14306e+00  1.07860e+00  3.40045e-01
       H -2.97731e+00  1.28340e+00  1.30636e+00
       H -2.57275e+00  3.70078e-01  1.31438e-01
       H -3.94490e+00  1.29623e+00 -1.49818e-01
4
# CELL(abcABC): 1000.00000  1000.00000  1000.00000    90.00000    90.00000    90.00000  Step:          58  Bead:       0 positions{angstrom}  cell{angstrom}
       O -3.14466e+00  1.07777e+00  3.40399e-01
       H -2.96447e+00  1.28805e+00  1.31034e+00
       H -2.56383e+00  3.81410e-01  1.17340e-01
       H -3.94119e+00  1.29337e+00 -1.45330e-01
4
# CELL(abcABC): 1000.00000  1000.00000  1000.00000    90.00000    90.00000    90.00000  Step:          59  Bead:       0 positions{angstrom}  cell{angstrom}
       O -3.14636e+00  1.07714e+00  3.41068e-01
       H -2.95198e+00  1.29277e+00  1.31048e+00
       H -2.55185e+00  3.89265e-01  1.02592e-01
       H -3.93878e+00  1.29087e+00 -1.41338e-01
4
# CELL(abcABC): 1000.00000  1000.00000  1000.00000    90.00000    90.00000    90.00000  Step:          60  Bead:       0 positions{angstrom}  cell{angstrom}
       O -3.14807e+00  1.07674e+00  3.42227e-01
       H -2.94185e+00  1.29697e+00  1.30653e+00
       H -2.53680e+00  3.93291e-01  8.43548e-02
       H -3.93679e+00  1.28889e+00 -1.37550e-01
4
# CELL(abcABC): 1000.00000  1000.00000  1000.00000    90.00000    90.00000    90.00000  Step:          61  Bead:       0 positions{angstrom}  cell{angstrom}
       O -3.14977e+00  1.07649e+00  3.43820e-01
       H -2.93218e+00  1.30048e+00  1.29839e+00
       H -2.51927e+00  3.95210e-01  6.35028e-02
       H -3.93696e+00  1.28743e+00 -1.33848e-01
4
# CELL(abcABC): 1000.00000  1000.00000  1000.00000    90.00000    90.00000    90.00000  Step:          62  Bead:       0 positions{angstrom}  cell{angstrom}
       O -3.15120e+00  1.07632e+00  3.45871e-01
       H -2.92454e+00  1.30306e+00  1.28647e+00
       H -2.50313e+00  3.96337e-01  4.15719e-02
       H -3.93804e+00  1.28640e+00 -1.32546e-01
4
# CELL(abcABC): 1000.00000  1000.00000  1000.00000    90.00000    90.00000    90.00000  Step:          63  Bead:       0 positions{angstrom}  cell{angstrom}
       O -3.15230e+00  1.07594e+00  3.47970e-01
       H -2.91763e+00  1.30674e+00  1.27277e+00
       H -2.48888e+00  3.97782e-01  1.96890e-02
       H -3.94177e+00  1.28733e+00 -1.30284e-01
4
# CELL(abcABC): 1000.00000  1000.00000  1000.00000    90.00000    90.00000    90.00000  Step:          64  Bead:       0 positions{angstrom}  cell{angstrom}
       O -3.15311e+00  1.07536e+00  3.50087e-01
       H -2.91026e+00  1.31116e+00  1.25912e+00
       H -2.47702e+00  4.01149e-01 -1.18913e-03
       H -3.94818e+00  1.28881e+00 -1.29359e-01
4
# CELL(abcABC): 1000.00000  1000.00000  1000.00000    90.00000    90.00000    90.00000  Step:          65  Bead:       0 positions{angstrom}  cell{angstrom}
       O -3.15359e+00  1.07445e+00  3.52137e-01
       H -2.90410e+00  1.31704e+00  1.24478e+00
       H -2.46804e+00  4.08686e-01 -2.05939e-02
       H -3.95568e+00  1.28984e+00 -1.28155e-01
4
# CELL(abcABC): 1000.00000  1000.00000  1000.00000    90.00000    90.00000    90.00000  Step:          66  Bead:       0 positions{angstrom}  cell{angstrom}
       O -3.15378e+00  1.07312e+00  3.53859e-01
       H -2.89809e+00  1.32679e+00  1.23295e+00
       H -2.46291e+00  4.18111e-01 -3.75476e-02
       H -3.96379e+00  1.29173e+00 -1.26708e-01
4
# CELL(abcABC): 1000.00000  1000.00000  1000.00000    90.00000    90.00000    90.00000  Step:          67  Bead:       0 positions{angstrom}  cell{angstrom}
       O -3.15364e+00  1.07153e+00  3.55232e-01
       H -2.89153e+00  1.33737e+00  1.22314e+00
       H -2.46139e+00  4.31146e-01 -5.14818e-02
       H -3.97416e+00  1.29332e+00 -1.24755e-01
4
# CELL(abcABC): 1000.00000  1000.00000  1000.00000    90.00000    90.00000    90.00000  Step:          68  Bead:       0 positions{angstrom}  cell{angstrom}
       O -3.15332e+00  1.06957e+00  3.56334e-01
       H -2.88380e+00  1.34958e+00  1.21649e+00
       H -2.46345e+00  4.47633e-01 -6.43761e-02
       H -3.98493e+00  1.29576e+00 -1.22698e-01
4
# CELL(abcABC): 1000.00000  1000.00000  1000.00000    90.00000    90.00000    90.00000  Step:          69  Bead:       0 positions{angstrom}  cell{angstrom}
       O -3.15280e+00  1.06744e+00  3.56821e-01
       H -2.87574e+00  1.36210e+00  1.21496e+00
       H -2.46962e+00  4.67180e-01 -7.38224e-02
       H -3.99508e+00  1.29758e+00 -1.19458e-01
4
# CELL(abcABC): 1000.00000  1000.00000  1000.00000    90.00000    90.00000    90.00000  Step:          70  Bead:       0 positions{angstrom}  cell{angstrom}
       O -3.15237e+00  1.06496e+00  3.56934e-01
       H -2.86670e+00  1.37667e+00  1.21526e+00
       H -2.47808e+00  4.89719e-01 -8.14001e-02
       H -4.00233e+00  1.29983e+00 -1.13972e-01
4
# CELL(abcABC): 1000.00000  1000.00000  1000.00000    90.00000    90.00000    90.00000  Step:          71  Bead:       0 positions{angstrom}  cell{angstrom}
       O -3.15194e+00  1.06245e+00  3.56844e-01
       H -2.85800e+00  1.39104e+00  1.21583e+00
       H -2.48822e+00  5.12927e-01 -8.79706e-02
       H -4.00786e+00  1.30207e+00 -1.06540e-01
4
# CELL(abcABC): 1000.00000  1000.00000  1000.00000    90.00000    90.00000    90.00000  Step:          72  Bead:       0 positions{angstrom}  cell{angstrom}
       O -3.15166e+00  1.05985e+00  3.56562e-01
       H -2.84884e+00  1.40602e+00  1.21722e+00
       H -2.49782e+00  5.36243e-01 -9.32888e-02
       H -4.01175e+00  1.30503e+00 -9.81474e-02
4
# CELL(abcABC): 1000.00000  1000.00000  1000.00000    90.00000    90.00000    90.00000  Step:          73  Bead:       0 positions{angstrom}  cell{angstrom}
       O -3.15157e+00  1.05742e+00  3.56361e-01
       H -2.84001e+00  1.42056e+00  1.21782e+00
       H -2.50536e+00  5.58534e-01 -9.92282e-02
       H -4.01445e+00  1.30683e+00 -8.96059e-02
4
# CELL(abcABC): 1000.00000  1000.00000  1000.00000    90.00000    90.00000    90.00000  Step:          74  Bead:       0 positions{angstrom}  cell{angstrom}
       O -3.15183e+00  1.05517e+00  3.56471e-01
       H -2.83137e+00  1.43432e+00  1.21549e+00
       H -2.50922e+00  5.78261e-01 -1.08145e-01
       H -4.01522e+00  1.30899e+00 -8.01080e-02
4
# CELL(abcABC): 1000.00000  1000.00000  1000.00000    90.00000    90.00000    90.00000  Step:          75  Bead:       0 positions{angstrom}  cell{angstrom}
       O -3.15228e+00  1.05327e+00  3.56840e-01
       H -2.82389e+00  1.44583e+00  1.21033e+00
       H -2.50895e+00  5.94103e-01 -1.18946e-01
       H -4.01584e+00  1.31171e+00 -7.00028e-02
4
# CELL(abcABC): 1000.00000  1000.00000  1000.00000    90.00000    90.00000    90.00000  Step:          76  Bead:       0 positions{angstrom}  cell{angstrom}
       O -3.15316e+00  1.05159e+00  3.57386e-01
       H -2.81635e+00  1.45608e+00  1.20375e+00
       H -2.50383e+00  6.06590e-01 -1.32608e-01
       H -4.01447e+00  1.31570e+00 -5.84290e-02
4
# CELL(abcABC): 1000.00000  1000.00000  1000.00000    90.00000    90.00000    90.00000  Step:          77  Bead:       0 positions{angstrom}  cell{angstrom}
       O -3.15425e+00  1.05018e+00  3.58189e-01
       H -2.80970e+00  1.46559e+00  1.19463e+00
       H -2.49480e+00  6.16458e-01 -1.48278e-01
       H -4.01284e+00  1.31864e+00 -4.63899e-02
4
# CELL(abcABC): 1000.00000  1000.00000  1000.00000    90.00000    90.00000    90.00000  Step:          78  Bead:       0 positions{angstrom}  cell{angstrom}
       O -3.15547e+00  1.04904e+00  3.59399e-01
       H -2.80504e+00  1.47282e+00  1.18221e+00
       H -2.48179e+00  6.24908e-01 -1.65988e-01
       H -4.01115e+00  1.32113e+00 -3.54650e-02
4
# CELL(abcABC): 1000.00000  1000.00000  1000.00000    90.00000    90.00000    90.00000  Step:          79  Bead:       0 positions{angstrom}  cell{angstrom}
       O -3.15682e+00  1.04816e+00  3.60718e-01
       H -2.80168e+00  1.47919e+00  1.16930e+00
       H -2.46596e+00  6.31530e-01 -1.84478e-01
       H -4.00893e+00  1.32209e+00 -2.49961e-02
4
# CELL(abcABC): 1000.00000  1000.00000  1000.00000    90.00000    90.00000    90.00000  Step:          80  Bead:       0 positions{angstrom}  cell{angstrom}
       O -3.15820e+00  1.04738e+00  3.61950e-01
       H -2.79840e+00  1.48484e+00  1.15537e+00
       H -2.44993e+00  6.37995e-01 -2.01110e-01
       H -4.00630e+00  1.32245e+00 -1.39848e-02
4
# CELL(abcABC): 1000.00000  1000.00000  1000.00000    90.00000    90.00000    90.00000  Step:          81  Bead:       0 positions{angstrom}  cell{angstrom}
       O -3.15947e+00  1.04644e+00  3.63151e-01
       H -2.79321e+00  1.49082e+00  1.14061e+00
       H -2.43624e+00  6.47302e-01 -2.15548e-01
       H -4.00495e+00  1.32202e+00 -3.86357e-03
4
# CELL(abcABC): 1000.00000  1000.00000  1000.00000    90.00000    90.00000    90.00000  Step:          82  Bead:       0 positions{angstrom}  cell{angstrom}
       O -3.16049e+00  1.04556e+00  3.64073e-01
       H -2.78727e+00  1.49616e+00  1.12721e+00
       H -2.42511e+00  6.56941e-01 -2.27222e-01
       H -4.00590e+00  1.32106e+00  6.57195e-03
4
# CELL(abcABC): 1000.00000  1000.00000  1000.00000    90.00000    90.00000    90.00000  Step:          83  Bead:       0 positions{angstrom}  cell{angstrom}
       O -3.16123e+00  1.04447e+00  3.64743e-01
       H -2.78102e+00  1.50229e+00  1.11552e+00
       H -2.41776e+00  6.68819e-01 -2.35527e-01
       H -4.00784e+00  1.32026e+00  1.59469e-02
4
# CELL(abcABC): 1000.00000  1000.00000  1000.00000    90.00000    90.00000    90.00000  Step:          84  Bead:       0 positions{angstrom}  cell{angstrom}
       O -3.16159e+00  1.04323e+00  3.65157e-01
       H -2.77333e+00  1.50833e+00  1.10449e+00
       H -2.41569e+00  6.82821e-01 -2.40387e-01
       H -4.01189e+00  1.31994e+00  2.52656e-02
4
# CELL(abcABC): 1000.00000  1000.00000  1000.00000    90.00000    90.00000    90.00000  Step:          85  Bead:       0 positions{angstrom}  cell{angstrom}