4
# CELL(abcABC): 1000.00000  1000.00000  1000.00000    90.00000    90.00000    90.00000  Step:           0  Bead:       0 positions{angstrom}  cell{angstrom}
       O -3.13857e+00  1.09766e+00  3.39089e-01
       H -2.40868e+00  5.49445e-01  9.72111e-02
       H -3.15284e+00  1.07008e+00  1.27751e+00
       H -4.00475e+00  1.02761e+00 -7.15555e-02
4
# CELL(abcABC): 1000.00000  1000.00000  1000.00000    90.00000    90.00000    90.00000  Step:           1  Bead:       0 positions{angstrom}  cell{angstrom}
       O -3.13690e+00  1.09802e+00  3.38536e-01
       H -2.41717e+00  5.41029e-01  9.97511e-02
       H -3.15314e+00  1.06985e+00  1.28112e+00
       H -4.02247e+00  1.03047e+00 -6.89336e-02
4
# CELL(abcABC): 1000.00000  1000.00000  1000.00000    90.00000    90.00000    90.00000  Step:           2  Bead:       0 positions{angstrom}  cell{angstrom}
       O -3.13545e+00  1.09854e+00  3.37966e-01
       H -2.42313e+00  5.29989e-01  9.92770e-02
       H -3.15271e+00  1.07054e+00  1.28906e+00
       H -4.03989e+00  1.03263e+00 -6.73531e-02
4
# CELL(abcABC): 1000.00000  1000.00000  1000.00000    90.00000    90.00000    90.00000  Step:           3  Bead:       0 positions{angstrom}  cell{angstrom}
       O -3.13418e+00  1.09926e+00  3.37346e-01
       H -2.42607e+00  5.14949e-01  9.72062e-02
       H -3.15336e+00  1.07335e+00  1.30080e+00
       H -4.05655e+00  1.03346e+00 -6.71755e-02
4
# CELL(abcABC): 1000.00000  1000.00000  1000.00000    90.00000    90.00000    90.00000  Step:           4  Bead:       0 positions{angstrom}  cell{angstrom}
       O -3.13316e+00  1.10016e+00  3.36882e-01
       H -2.42757e+00  4.96359e-01  9.10879e-02
       H -3.15410e+00  1.07792e+00  1.31367e+00
       H -4.07046e+00  1.03310e+00 -6.65673e-02
4
# CELL(abcABC): 1000.00000  1000.00000  1000.00000    90.00000    90.00000    90.00000  Step:           5  Bead:       0 positions{angstrom}  cell{angstrom}
       O -3.13227e+00  1.10104e+00  3.36578e-01
       H -2.42939e+00  4.76310e-01  8.23711e-02
       H -3.15608e+00  1.08481e+00  1.32757e+00
       H -4.08086e+00  1.03238e+00 -6.69134e-02
4
# CELL(abcABC): 1000.00000  1000.00000  1000.00000    90.00000    90.00000    90.00000  Step:           6  Bead:       0 positions{angstrom}  cell{angstrom}
       O -3.13145e+00  1.10201e+00  3.36468e-01
       H -2.43189e+00  4.56048e-01  7.10836e-02
       H -3.15915e+00  1.09119e+00  1.33895e+00
       H -4.08827e+00  1.03085e+00 -6.52568e-02
4
# CELL(abcABC): 1000.00000  1000.00000  1000.00000    90.00000    90.00000    90.00000  Step:           7  Bead:       0 positions{angstrom}  cell{angstrom}
       O -3.13083e+00  1.10284e+00  3.36338e-01
       H -2.43480e+00  4.36351e-01  6.01772e-02
       H -3.16270e+00  1.09813e+00  1.34848e+00
       H -4.09170e+00  1.03046e+00 -6.18245e-02
4
# CELL(abcABC): 1000.00000  1000.00000  1000.00000    90.00000    90.00000    90.00000  Step:           8  Bead:       0 positions{angstrom}  cell{angstrom}
       O -3.13040e+00  1.10358e+00  3.36440e-01
       H -2.43944e+00  4.18187e-01  4.83816e-02
       H -3.16535e+00  1.10483e+00  1.35387e+00
       H -4.09118e+00  1.03020e+00 -5.70314e-02
4
# CELL(abcABC): 1000.00000  1000.00000  1000.00000    90.00000    90.00000    90.00000  Step:           9  Bead:       0 positions{angstrom}  cell{angstrom}
       O -3.13008e+00  1.10425e+00  3.36576e-01
       H -2.44735e+00  4.01514e-01  3.80717e-02
       H -3.16690e+00  1.11211e+00  1.35595e+00
       H -4.08671e+00  1.02886e+00 -5.09617e-02
4
# CELL(abcABC): 1000.00000  1000.00000  1000.00000    90.00000    90.00000    90.00000  Step:          10  Bead:       0 positions{angstrom}  cell{angstrom}
       O -3.12980e+00  1.10468e+00  3.36979e-01
       H -2.45872e+00  3.87751e-01  2.78261e-02
       H -3.16805e+00  1.12028e+00  1.35326e+00
       H -4.07867e+00  1.02773e+00 -4.44289e-02
4
# CELL(abcABC): 1000.00000  1000.00000  1000.00000    90.00000    90.00000    90.00000  Step:          11  Bead:       0 positions{angstrom}  cell{angstrom}
       O -3.12951e+00  1.10491e+00  3.37640e-01
       H -2.47342e+00  3.78040e-01  1.74595e-02
       H -3.17013e+00  1.12818e+00  1.34642e+00
       H -4.06654e+00  1.02588e+00 -3.77152e-02
4
# CELL(abcABC): 1000.00000  1000.00000  1000.00000    90.00000    90.00000    90.00000  Step:          12  Bead:       0 positions{angstrom}  cell{angstrom}
       O -3.12931e+00  1.10499e+00  3.38455e-01
       H -2.49011e+00  3.71675e-01  8.21992e-03
       H -3.17187e+00  1.13469e+00  1.33551e+00
       H -4.05121e+00  1.02440e+00 -3.04981e-02
4
# CELL(abcABC): 1000.00000  1000.00000  1000.00000    90.00000    90.00000    90.00000  Step:          13  Bead:       0 positions{angstrom}  cell{angstrom}
       O -3.12911e+00  1.10490e+00  3.39277e-01
       H -2.50959e+00  3.69410e-01  8.79605e-04
       H -3.17184e+00  1.14077e+00  1.32266e+00
       H -4.03502e+00  1.02208e+00 -2.33560e-02
4
# CELL(abcABC): 1000.00000  1000.00000  1000.00000    90.00000    90.00000    90.00000  Step:          14  Bead:       0 positions{angstrom}  cell{angstrom}
       O -3.12885e+00  1.10461e+00  3.40025e-01
       H -2.52990e+00  3.70056e-01 -4.29631e-03
       H -3.17077e+00  1.14711e+00  1.30927e+00
       H -4.01988e+00  1.01962e+00 -1.66700e-02
4
# CELL(abcABC): 1000.00000  1000.00000  1000.00000    90.00000    90.00000    90.00000  Step:          15  Bead:       0 positions{angstrom}  cell{angstrom}
       O -3.12837e+00  1.10408e+00  3.40452e-01
       H -2.55356e+00  3.72798e-01 -5.60600e-03
       H -3.16979e+00  1.15365e+00  1.29719e+00
       H -4.00487e+00  1.01879e+00 -1.00589e-02
4
# CELL(abcABC): 1000.00000  1000.00000  1000.00000    90.00000    90.00000    90.00000  Step:          16  Bead:       0 positions{angstrom}  cell{angstrom}
       O -3.12773e+00  1.10339e+00  3.40728e-01
       H -2.57649e+00  3.76722e-01 -5.82984e-03
       H -3.16848e+00  1.16102e+00  1.28783e+00
       H -3.99341e+00  1.01837e+00 -4.85107e-03
4
# CELL(abcABC): 1000.00000  1000.00000  1000.00000    90.00000    90.00000    90.00000  Step:          17  Bead:       0 positions{angstrom}  cell{angstrom}
       O -3.12678e+00  1.10269e+00  3.40826e-01
       H -2.59780e+00  3.81346e-01 -4.84848e-03
       H -3.16771e+00  1.16893e+00  1.28139e+00
       H -3.98792e+00  1.01695e+00 -9.42725e-04
4
# CELL(abcABC): 1000.00000  1000.00000  1000.00000    90.00000    90.00000    90.00000  Step:          18  Bead:       0 positions{angstrom}  cell{angstrom}
       O -3.12561e+00  1.10198e+00  3.40745e-01
       H -2.61793e+00  3.85507e-01 -3.27534e-03
       H -3.16537e+00  1.17678e+00  1.27955e+00
       H -3.98875e+00  1.01629e+00  6.09798e-04
4
# CELL(abcABC): 1000.00000  1000.00000  1000.00000    90.00000    90.00000    90.00000  Step:          19  Bead:       0 positions{angstrom}  cell{angstrom}
       O -3.12442e+00  1.10148e+00  3.40499e-01
       H -2.63413e+00  3.86576e-01 -1.51060e-03
       H -3.16328e+00  1.18397e+00  1.28181e+00
       H -3.99342e+00  1.01589e+00  4.87929e-04
4
# CELL(abcABC): 1000.00000  1000.00000  1000.00000    90.00000    90.00000    90.00000  Step:          20  Bead:       0 positions{angstrom}  cell{angstrom}
       O -3.12324e+00  1.10129e+00  3.40213e-01
       H -2.64576e+00  3.83791e-01 -1.97101e-03
       H -3.16158e+00  1.19108e+00  1.28857e+00
       H -4.00228e+00  1.01463e+00 -1.26955e-03
4
# CELL(abcABC): 1000.00000  1000.00000  1000.00000    90.00000    90.00000    90.00000  Step:          21  Bead:       0 positions{angstrom}  cell{angstrom}
       O -3.12224e+00  1.10140e+00  3.39962e-01
       H -2.65291e+00  3.75571e-01 -4.68982e-03
       H -3.15763e+00  1.19843e+00  1.29940e+00
       H -4.01488e+00  1.01383e+00 -5.40060e-03
4
# CELL(abcABC): 1000.00000  1000.00000  1000.00000    90.00000    90.00000    90.00000  Step:          22  Bead:       0 positions{angstrom}  cell{angstrom}
       O -3.12152e+00  1.10171e+00  3.39822e-01
       H -2.65658e+00  3.61895e-01 -7.34641e-03
       H -3.15074e+00  1.20551e+00  1.31018e+00
       H -4.02957e+00  1.01551e+00 -1.13011e-02
4
# CELL(abcABC): 1000.00000  1000.00000  1000.00000    90.00000    90.00000    90.00000  Step:          23  Bead:       0 positions{angstrom}  cell{angstrom}
       O -3.12110e+00  1.10222e+00  3.39903e-01
       H -2.65634e+00  3.45316e-01 -1.08981e-02
       H -3.14205e+00  1.21238e+00  1.32147e+00
       H -4.04525e+00  1.01713e+00 -2.03211e-02
4
# CELL(abcABC): 1000.00000  1000.00000  1000.00000    90.00000    90.00000    90.00000  Step:          24  Bead:       0 positions{angstrom}  cell{angstrom}
       O -3.12099e+00  1.10273e+00  3.40017e-01
       H -2.65289e+00  3.25978e-01 -1.41182e-02
       H -3.13206e+00  1.21945e+00  1.33182e+00
       H -4.06038e+00  1.02118e+00 -2.92643e-02
4
# CELL(abcABC): 1000.00000  1000.00000  1000.00000    90.00000    90.00000    90.00000  Step:          25  Bead:       0 positions{angstrom}  cell{angstrom}
       O -3.12113e+00  1.10333e+00  3.40043e-01
       H -2.64809e+00  3.05790e-01 -1.53044e-02
       H -3.12160e+00  1.22483e+00  1.34006e+00
       H -4.07340e+00  1.02654e+00 -3.67389e-02
4
# CELL(abcABC): 1000.00000  1000.00000  1000.00000    90.00000    90.00000    90.00000  Step:          26  Bead:       0 positions{angstrom}  cell{angstrom}
       O -3.12152e+00  1.10389e+00  3.40019e-01
       H -2.64304e+00  2.86846e-01 -1.52671e-02
       H -3.11016e+00  1.22878e+00  1.34502e+00
       H -4.08367e+00  1.03259e+00 -4.13443e-02
4
# CELL(abcABC): 1000.00000  1000.00000  1000.00000    90.00000    90.00000    90.00000  Step:          27  Bead:       0 positions{angstrom}  cell{angstrom}
       O -3.12225e+00  1.10424e+00  3.39968e-01
       H -2.63886e+00  2.72216e-01 -1.34646e-02
       H -3.09819e+00  1.23068e+00  1.34608e+00
       H -4.08832e+00  1.03980e+00 -4.34090e-02
4
# CELL(abcABC): 1000.00000  1000.00000  1000.00000    90.00000    90.00000    90.00000  Step:          28  Bead:       0 positions{angstrom}  cell{angstrom}
       O -3.12311e+00  1.10433e+00  3.39782e-01
       H -2.63705e+00  2.60427e-01 -9.13022e-03
       H -3.08533e+00  1.23153e+00  1.34374e+00
       H -4.08924e+00  1.04934e+00 -4.24412e-02
4
# CELL(abcABC): 1000.00000  1000.00000  1000.00000    90.00000    90.00000    90.00000  Step:          29  Bead:       0 positions{angstrom}  cell{angstrom}
       O -3.12416e+00  1.10407e+00  3.39520e-01
       H -2.63631e+00  2.53954e-01 -3.48536e-03
       H -3.07330e+00  1.23126e+00  1.33790e+00
       H -4.08532e+00  1.06021e+00 -3.80902e-02
4
# CELL(abcABC): 1000.00000  1000.00000  1000.00000    90.00000    90.00000    90.00000  Step:          30  Bead:       0 positions{angstrom}  cell{angstrom}
       O -3.12533e+00  1.10336e+00  3.39119e-01
       H -2.63716e+00  2.53742e-01  5.52798e-03
       H -3.06161e+00  1.23005e+00  1.32943e+00
       H -4.07767e+00  1.07283e+00 -3.22603e-02
4
# CELL(abcABC): 1000.00000  1000.00000  1000.00000    90.00000    90.00000    90.00000  Step:          31  Bead:       0 positions{angstrom}  cell{angstrom}
       O -3.12669e+00  1.10220e+00  3.38667e-01
       H -2.63840e+00  2.58754e-01  1.70234e-02
       H -3.04956e+00  1.22934e+00  1.31796e+00
       H -4.06684e+00  1.08699e+00 -2.51198e-02
4
# CELL(abcABC): 1000.00000  1000.00000  1000.00000    90.00000    90.00000    90.00000  Step:          32  Bead:       0 positions{angstrom}  cell{angstrom}
       O -3.12804e+00  1.10081e+00  3.37923e-01
       H -2.64235e+00  2.66353e-01  3.09390e-02
       H -3.03737e+00  1.22959e+00  1.30632e+00
       H -4.05375e+00  1.10118e+00 -1.55865e-02
4
# CELL(abcABC): 1000.00000  1000.00000  1000.00000    90.00000    90.00000    90.00000  Step:          33  Bead:       0 positions{angstrom}  cell{angstrom}
       O -3.12931e+00  1.09929e+00  3.36972e-01
       H -2.64826e+00  2.76701e-01  4.72519e-02
       H -3.02528e+00  1.22891e+00  1.29478e+00
       H -4.03973e+00  1.11571e+00 -5.26520e-03
4
# CELL(abcABC): 1000.00000  1000.00000  1000.00000    90.00000    90.00000    90.00000  Step:          34  Bead:       0 positions{angstrom}  cell{angstrom}
       O -3.13032e+00  1.09762e+00  3.36054e-01
       H -2.65456e+00  2.88835e-01  6.37238e-02
       H -3.01555e+00  1.22812e+00  1.28421e+00
       H -4.02707e+00  1.13083e+00  3.40546e-03
4
# CELL(abcABC): 1000.00000  1000.00000  1000.00000    90.00000    90.00000    90.00000  Step:          35  Bead:       0 positions{angstrom}  cell{angstrom}
       O -3.13120e+00  1.09584e+00  3.35120e-01
       H -2.65918e+00  3.01040e-01  7.88032e-02
       H -3.00762e+00  1.22900e+00  1.27593e+00
       H -4.01652e+00  1.14600e+00  1.14379e-02
4
# CELL(abcABC): 1000.00000  1000.00000  1000.00000    90.00000    90.00000    90.00000  Step:          36  Bead:       0 positions{angstrom}  cell{angstrom}
       O -3.13190e+00  1.09400e+00  3.34245e-01
       H -2.66269e+00  3.11488e-01  9.17536e-02
       H -3.00014e+00  1.23222e+00  1.26912e+00
       H -4.00939e+00  1.16151e+00  1.91794e-02
4
# CELL(abcABC): 1000.00000  1000.00000  1000.00000    90.00000    90.00000    90.00000  Step:          37  Bead:       0 positions{angstrom}  cell{angstrom}
       O -3.13245e+00  1.09234e+00  3.33353e-01
       H -2.66382e+00  3.19162e-01  1.04015e-01
       H -2.99268e+00  1.23615e+00  1.26460e+00
       H -4.00698e+00  1.17620e+00  2.55958e-02
4
# CELL(abcABC): 1000.00000  1000.00000  1000.00000    90.00000    90.00000    90.00000  Step:          38  Bead:       0 positions{angstrom}  cell{angstrom}
       O -3.13265e+00  1.09090e+00  3.32763e-01
       H -2.66351e+00  3.21533e-01  1.11988e-01
       H -2.98558e+00  1.24043e+00  1.26274e+00
       H -4.01107e+00  1.19249e+00  2.88651e-02
4
# CELL(abcABC): 1000.00000  1000.00000  1000.00000    90.00000    90.00000    90.00000  Step:          39  Bead:       0 positions{angstrom}  cell{angstrom}
       O -3.13290e+00  1.08984e+00  3.32223e-01
       H -2.65979e+00  3.17508e-01  1.17036e-01
       H -2.97842e+00  1.24502e+00  1.26459e+00
       H -4.01806e+00  1.20868e+00  3.05312e-02
4
# CELL(abcABC): 1000.00000  1000.00000  1000.00000    90.00000    90.00000    90.00000  Step:          40  Bead:       0 positions{angstrom}  cell{angstrom}
       O -3.13310e+00  1.08900e+00  3.31664e-01
       H -2.65373e+00  3.08198e-01  1.19668e-01
       H -2.97133e+00  1.25113e+00  1.27031e+00
       H -4.02803e+00  1.22522e+00  3.10390e-02
4
# CELL(abcABC): 1000.00000  1000.00000  1000.00000    90.00000    90.00000    90.00000  Step:          41  Bead:       0 positions{angstrom}  cell{angstrom}
       O -3.13323e+00  1.08835e+00  3.31232e-01
       H -2.64652e+00  2.95375e-01  1.18843e-01
       H -2.96403e+00  1.25877e+00  1.27758e+00
       H -4.04047e+00  1.24081e+00  3.14686e-02
4
# CELL(abcABC): 1000.00000  1000.00000  1000.00000    90.00000    90.00000    90.00000  Step:          42  Bead:       0 positions{angstrom}  cell{angstrom}
       O -3.13342e+00  1.08797e+00  3.31041e-01
       H -2.63748e+00  2.78075e-01  1.15163e-01
       H -2.95699e+00  1.26733e+00  1.28527e+00
       H -4.05355e+00  1.25550e+00  3.04903e-02
4
# CELL(abcABC): 1000.00000  1000.00000  1000.00000    90.00000    90.00000    90.00000  Step:          43  Bead:       0 positions{angstrom}  cell{angstrom}
       O -3.13354e+00  1.08760e+00  3.31056e-01
       H -2.62960e+00  2.61005e-01  1.09257e-01
       H -2.95046e+00  1.27776e+00  1.29214e+00
       H -4.06608e+00  1.26806e+00  2.92810e-02
4
# CELL(abcABC): 1000.00000  1000.00000  1000.00000    90.00000    90.00000    90.00000  Step:          44  Bead:       0 positions{angstrom}  cell{angstrom}
       O -3.13357e+00  1.08726e+00  3.31265e-01
       H -2.62344e+00  2.44447e-01  1.01481e-01
       H -2.94460e+00  1.28798e+00  1.29651e+00
       H -4.07754e+00  1.27982e+00  2.93661e-02
4
# CELL(abcABC): 1000.00000  1000.00000  1000.00000    90.00000    90.00000    90.00000  Step:          45  Bead:       0 positions{angstrom}  cell{angstrom}
       O -3.13346e+00  1.08688e+00  3.31717e-01
       H -2.62061e+00  2.30697e-01  9.23675e-02
       H -2.93887e+00  1.29747e+00  1.29738e+00
       H -4.08797e+00  1.29007e+00  3.04351e-02
4
# CELL(abcABC): 1000.00000  1000.00000  1000.00000    90.00000    90.00000    90.00000  Step:          46  Bead:       0 positions{angstrom}  cell{angstrom}
       O -3.13334e+00  1.08643e+00  3.32361e-01
       H -2.62118e+00  2.21313e-01  8.26240e-02
       H -2.93404e+00  1.30576e+00  1.29476e+00
       H -4.09410e+00  1.29838e+00  3.25715e-02
4
# CELL(abcABC): 1000.00000  1000.00000  1000.00000    90.00000    90.00000    90.00000  Step:          47  Bead:       0 positions{angstrom}  cell{angstrom}
       O -3.13317e+00  1.08573e+00  3.33257e-01
       H -2.62526e+00  2.16062e-01  7.33065e-02
       H -2.92980e+00  1.31375e+00  1.28828e+00
       H -4.09695e+00  1.30664e+00  3.41490e-02
4
# CELL(abcABC): 1000.00000  1000.00000  1000.00000    90.00000    90.00000    90.00000  Step:          48  Bead:       0 positions{angstrom}  cell{angstrom}
       O -3.13298e+00  1.08499e+00  3.34225e-01
       H -2.63240e+00  2.14453e-01  6.47333e-02
       H -2.92615e+00  1.32176e+00  1.27842e+00
       H -4.09649e+00  1.31210e+00  3.72122e-02
4
# CELL(abcABC): 1000.00000  1000.00000  1000.00000    90.00000    90.00000    90.00000  Step:          49  Bead:       0 positions{angstrom}  cell{angstrom}
       O -3.13285e+00  1.08409e+00  3.35105e-01
       H -2.64285e+00  2.17008e-01  5.73747e-02
       H -2.92168e+00  1.32894e+00  1.26674e+00
       H -4.09254e+00  1.31655e+00  4.22969e-02
4
# CELL(abcABC): 1000.00000  1000.00000  1000.00000    90.00000    90.00000    90.00000  Step:          50  Bead:       0 positions{angstrom}  cell{angstrom}
       O -3.13259e+00  1.08313e+00  3.36052e-01
       H -2.65671e+00  2.23943e-01  5.04282e-02
       H -2.91907e+00  1.33495e+00  1.25406e+00
       H -4.08544e+00  1.31883e+00  4.68779e-02
4
# CELL(abcABC): 1000.00000  1000.00000  1000.00000    90.00000    90.00000    90.00000  Step:          51  Bead:       0 positions{angstrom}  cell{angstrom}
       O -3.13240e+00  1.08206e+00  3.36926e-01
       H -2.67351e+00  2.33988e-01  4.36844e-02
       H -2.91664e+00  1.34103e+00  1.24125e+00
       H -4.07412e+00  1.31982e+00  5.25632e-02
4
# CELL(abcABC): 1000.00000  1000.00000  1000.00000    90.00000    90.00000    90.00000  Step:          52  Bead:       0 positions{angstrom}  cell{angstrom}
       O -3.13226e+00  1.08100e+00  3.37780e-01
       H -2.69260e+00  2.46246e-01  3.74087e-02
       H -2.91404e+00  1.34653e+00  1.22844e+00
       H -4.05985e+00  1.31873e+00  5.81030e-02
4
# CELL(abcABC): 1000.00000  1000.00000  1000.00000    90.00000    90.00000    90.00000  Step:          53  Bead:       0 positions{angstrom}  cell{angstrom}
       O -3.13222e+00  1.07991e+00  3.38433e-01
       H -2.71214e+00  2.60016e-01  3.03574e-02
       H -2.91093e+00  1.35376e+00  1.21861e+00
       H -4.04400e+00  1.31504e+00  6.46046e-02
4
# CELL(abcABC): 1000.00000  1000.00000  1000.00000    90.00000    90.00000    90.00000  Step:          54  Bead:       0 positions{angstrom}  cell{angstrom}
       O -3.13224e+00  1.07898e+00  3.38655e-01
       H -2.73173e+00  2.72160e-01  2.41088e-02
       H -2.90715e+00  1.36220e+00  1.21275e+00
       H -4.02785e+00  1.30936e+00  7.32048e-02
4
# CELL(abcABC): 1000.00000  1000.00000  1000.00000    90.00000    90.00000    90.00000  Step:          55  Bead:       0 positions{angstrom}  cell{angstrom}
       O -3.13236e+00  1.07821e+00  3.38712e-01
       H -2.75083e+00  2.81884e-01  1.78884e-02
       H -2.90198e+00  1.37125e+00  1.21099e+00
       H -4.01209e+00  1.30281e+00  8.02712e-02
4
# CELL(abcABC): 1000.00000  1000.00000  1000.00000    90.00000    90.00000    90.00000  Step:          56  Bead:       0 positions{angstrom}  cell{angstrom}
       O -3.13254e+00  1.07764e+00  3.38722e-01
       H -2.76567e+00  2.87588e-01  1.10523e-02
       H -2.89570e+00  1.38033e+00  1.21120e+00
       H -4.00065e+00  1.29702e+00  8.67398e-02
4
# CELL(abcABC): 1000.00000  1000.00000  1000.00000    90.00000    90.00000    90.00000  Step:          57  Bead:       0 positions{angstrom}  cell{angstrom}
       O -3.13265e+00  1.07733e+00  3.38720e-01
       H -2.77610e+00  2.88478e-01  3.23961e-03
       H -2.88927e+00  1.38893e+00  1.21485e+00
       H -3.99489e+00  1.29249e+00  9.09221e-02
4
# CELL(abcABC): 1000.00000  1000.00000  1000.00000    90.00000    90.00000    90.00000  Step:          58  Bead:       0 positions{angstrom}  cell{angstrom}
       O -3.13272e+00  1.07738e+00  3.38835e-01
       H -2.78230e+00  2.82952e-01 -6.19856e-03
       H -2.88143e+00  1.39705e+00  1.22067e+00
       H -3.99538e+00  1.28911e+00  9.27245e-02
4
# CELL(abcABC): 1000.00000  1000.00000  1000.00000    90.00000    90.00000    90.00000  Step:          59  Bead:       0 positions{angstrom}  cell{angstrom}
       O -3.13271e+00  1.07767e+00  3.38990e-01
       H -2.78461e+00  2.72696e-01 -1.65359e-02
       H -2.87245e+00  1.40471e+00  1.22855e+00
       H -4.00222e+00  1.28703e+00  9.27287e-02
4
# CELL(abcABC): 1000.00000  1000.00000  1000.00000    90.00000    90.00000    90.00000  Step:          60  Bead:       0 positions{angstrom}  cell{angstrom}
       O -3.13260e+00  1.07825e+00  3.39357e-01
       H -2.78556e+00  2.58779e-01 -2.70243e-02
       H -2.86212e+00  1.41027e+00  1.23418e+00
       H -4.01330e+00  1.28616e+00  9.17476e-02
4
# CELL(abcABC): 1000.00000  1000.00000  1000.00000    90.00000    90.00000    90.00000  Step:          61  Bead:       0 positions{angstrom}  cell{angstrom}
       O -3.13249e+00  1.07904e+00  3.39890e-01
       H -2.78394e+00  2.42925e-01 -3.71146e-02
       H -2.85023e+00  1.41371e+00  1.23702e+00
       H -4.02865e+00  1.28610e+00  9.05425e-02
4
# CELL(abcABC): 1000.00000  1000.00000  1000.00000    90.00000    90.00000    90.00000  Step:          62  Bead:       0 positions{angstrom}  cell{angstrom}
       O -3.13224e+00  1.07999e+00  3.40635e-01
       H -2.78220e+00  2.26783e-01 -4.61146e-02
       H -2.83944e+00  1.41451e+00  1.23730e+00
       H -4.04509e+00  1.28629e+00  8.74352e-02
4
# CELL(abcABC): 1000.00000  1000.00000  1000.00000    90.00000    90.00000    90.00000  Step:          63  Bead:       0 positions{angstrom}  cell{angstrom}
       O -3.13193e+00  1.08084e+00  3.41233e-01
       H -2.77993e+00  2.13908e-01 -5.23307e-02
       H -2.82914e+00  1.41228e+00  1.23518e+00
       H -4.06258e+00  1.28789e+00  8.62909e-02
4
# CELL(abcABC): 1000.00000  1000.00000  1000.00000    90.00000    90.00000    90.00000  Step:          64  Bead:       0 positions{angstrom}  cell{angstrom}
       O -3.13170e+00  1.08163e+00  3.41722e-01
       H -2.77676e+00  2.04910e-01 -5.47262e-02
       H -2.81879e+00  1.40755e+00  1.23095e+00
       H -4.07972e+00  1.28916e+00  8.51425e-02
4
# CELL(abcABC): 1000.00000  1000.00000  1000.00000    90.00000    90.00000    90.00000  Step:          65  Bead:       0 positions{angstrom}  cell{angstrom}
       O -3.13159e+00  1.08224e+00  3.42102e-01
       H -2.77508e+00  2.00998e-01 -5.51012e-02
       H -2.80813e+00  1.40196e+00  1.22473e+00
       H -4.09391e+00  1.28890e+00  8.57198e-02
4
# CELL(abcABC): 1000.00000  1000.00000  1000.00000    90.00000    90.00000    90.00000  Step:          66  Bead:       0 positions{angstrom}  cell{angstrom}
       O -3.13164e+00  1.08261e+00  3.42201e-01
       H -2.77448e+00  2.04588e-01 -5.16287e-02
       H -2.79768e+00  1.39310e+00  1.21744e+00
       H -4.10418e+00  1.28832e+00  8.79538e-02
4
# CELL(abcABC): 1000.00000  1000.00000  1000.00000    90.00000    90.00000    90.00000  Step:          67  Bead:       0 positions{angstrom}  cell{angstrom}
       O -3.13181e+00  1.08290e+00  3.42072e-01
       H -2.77462e+00  2.12145e-01 -4.60520e-02
       H -2.78697e+00  1.38290e+00  1.20990e+00
       H -4.11206e+00  1.28633e+00  9.19630e-02
4
# CELL(abcABC): 1000.00000  1000.00000  1000.00000    90.00000    90.00000    90.00000  Step:          68  Bead:       0 positions{angstrom}  cell{angstrom}
       O -3.13222e+00  1.08301e+00  3.41845e-01
       H -2.77504e+00  2.23686e-01 -3.82952e-02
       H -2.77607e+00  1.37178e+00  1.20061e+00
       H -4.11595e+00  1.28417e+00  9.71038e-02
4
# CELL(abcABC): 1000.00000  1000.00000  1000.00000    90.00000    90.00000    90.00000  Step:          69  Bead:       0 positions{angstrom}  cell{angstrom}
       O -3.13281e+00  1.08313e+00  3.41186e-01
       H -2.77648e+00  2.36884e-01 -2.70738e-02
       H -2.76585e+00  1.36025e+00  1.19280e+00
       H -4.11533e+00  1.28058e+00  1.04153e-01
4
# CELL(abcABC): 1000.00000  1000.00000  1000.00000    90.00000    90.00000    90.00000  Step:          70  Bead:       0 positions{angstrom}  cell{angstrom}
       O -3.13381e+00  1.08308e+00  3.40298e-01
       H -2.77779e+00  2.52352e-01 -1.57689e-02
       H -2.75531e+00  1.34945e+00  1.18587e+00
       H -4.10869e+00  1.27683e+00  1.13870e-01
4
# CELL(abcABC): 1000.00000  1000.00000  1000.00000    90.00000    90.00000    90.00000  Step:          71  Bead:       0 positions{angstrom}  cell{angstrom}
       O -3.13501e+00  1.08313e+00  3.39293e-01
       H -2.77948e+00  2.66524e-01 -5.83495e-03
       H -2.74504e+00  1.33854e+00  1.18009e+00
       H -4.09825e+00  1.27276e+00  1.25666e-01
4
# CELL(abcABC): 1000.00000  1000.00000  1000.00000    90.00000    90.00000    90.00000  Step:          72  Bead:       0 positions{angstrom}  cell{angstrom}
       O -3.13646e+00  1.08319e+00  3.38115e-01
       H -2.77993e+00  2.78860e-01  3.40925e-03
       H -2.73442e+00  1.32854e+00  1.17694e+00
       H -4.08536e+00  1.26940e+00  1.38274e-01
4
# CELL(abcABC): 1000.00000  1000.00000  1000.00000    90.00000    90.00000    90.00000  Step:          73  Bead:       0 positions{angstrom}  cell{angstrom}
       O -3.13802e+00  1.08348e+00  3.36966e-01
       H -2.77906e+00  2.87152e-01  1.06110e-02
       H -2.72387e+00  1.31988e+00  1.17566e+00
       H -4.07202e+00  1.26522e+00  1.50598e-01
4
# CELL(abcABC): 1000.00000  1000.00000  1000.00000    90.00000    90.00000    90.00000  Step:          74  Bead:       0 positions{angstrom}  cell{angstrom}
       O -3.13966e+00  1.08394e+00  3.36018e-01
       H -2.77608e+00  2.90390e-01  1.39528e-02
       H -2.71369e+00  1.31236e+00  1.17477e+00
       H -4.05923e+00  1.26211e+00  1.63180e-01
4
# CELL(abcABC): 1000.00000  1000.00000  1000.00000    90.00000    90.00000    90.00000  Step:          75  Bead:       0 positions{angstrom}  cell{angstrom}
       O -3.14104e+00  1.08468e+00  3.35177e-01
       H -2.77181e+00  2.87174e-01  1.39135e-02
       H -2.70482e+00  1.30542e+00  1.17590e+00
       H -4.05047e+00  1.26057e+00  1.75453e-01
4
# CELL(abcABC): 1000.00000  1000.00000  1000.00000    90.00000    90.00000    90.00000  Step:          76  Bead:       0 positions{angstrom}  cell{angstrom}
       O -3.14225e+00  1.08547e+00  3.34348e-01
       H -2.76540e+00  2.79414e-01  1.23268e-02
       H -2.69717e+00  1.29970e+00  1.17794e+00
       H -4.04527e+00  1.26159e+00  1.88156e-01
4
# CELL(abcABC): 1000.00000  1000.00000  1000.00000    90.00000    90.00000    90.00000  Step:          77  Bead:       0 positions{angstrom}  cell{angstrom}
       O -3.14299e+00  1.08631e+00  3.33628e-01
       H -2.75852e+00  2.69095e-01  8.60814e-03
       H -2.69144e+00  1.29537e+00  1.18094e+00
       H -4.04615e+00  1.26291e+00  2.00309e-01
4
# CELL(abcABC): 1000.00000  1000.00000  1000.00000    90.00000    90.00000    90.00000  Step:          78  Bead:       0 positions{angstrom}  cell{angstrom}
       O -3.14319e+00  1.08715e+00  3.33208e-01
       H -2.75311e+00  2.56212e-01  2.42896e-03
       H -2.68657e+00  1.29266e+00  1.18357e+00
       H -4.05321e+00  1.26505e+00  2.10515e-01
4
# CELL(abcABC): 1000.00000  1000.00000  1000.00000    90.00000    90.00000    90.00000  Step:          79  Bead:       0 positions{angstrom}  cell{angstrom}
       O -3.14295e+00  1.08802e+00  3.32869e-01
       H -2.74953e+00  2.43643e-01 -3.31107e-03
       H -2.68221e+00  1.28992e+00  1.18549e+00
       H -4.06494e+00  1.26664e+00  2.19727e-01
4
# CELL(abcABC): 1000.00000  1000.00000  1000.00000    90.00000    90.00000    90.00000  Step:          80  Bead:       0 positions{angstrom}  cell{angstrom}
       O -3.14234e+00  1.08876e+00  3.32503e-01
       H -2.74741e+00  2.32548e-01 -9.27181e-03
       H -2.67924e+00  1.28763e+00  1.18766e+00
       H -4.07971e+00  1.26820e+00  2.29323e-01
4
# CELL(abcABC): 1000.00000  1000.00000  1000.00000    90.00000    90.00000    90.00000  Step:          81  Bead:       0 positions{angstrom}  cell{angstrom}
       O -3.14141e+00  1.08920e+00  3.32251e-01
       H -2.74553e+00  2.24630e-01 -1.55858e-02
       H -2.67862e+00  1.28779e+00  1.18902e+00
       H -4.09711e+00  1.26907e+00  2.38276e-01
4
# CELL(abcABC): 1000.00000  1000.00000  1000.00000    90.00000    90.00000    90.00000  Step:          82  Bead:       0 positions{angstrom}  cell{angstrom}
       O -3.14016e+00  1.08957e+00  3.31928e-01
       H -2.74560e+00  2.19228e-01 -2.04782e-02
       H -2.67935e+00  1.28728e+00  1.18920e+00
       H -4.11600e+00  1.26902e+00  2.48114e-01
4
# CELL(abcABC): 1000.00000  1000.00000  1000.00000    90.00000    90.00000    90.00000  Step:          83  Bead:       0 positions{angstrom}  cell{angstrom}
       O -3.13877e+00  1.08968e+00  3.31604e-01
       H -2.74839e+00  2.17804e-01 -2.40243e-02
       H -2.68166e+00  1.28764e+00  1.18831e+00
       H -4.13308e+00  1.26835e+00  2.57688e-01
4
# CELL(abcABC): 1000.00000  1000.00000  1000.00000    90.00000    90.00000    90.00000  Step:          84  Bead:       0 positions{angstrom}  cell{angstrom}
       O -3.13726e+00  1.08960e+00  3.31291e-01
       H -2.75283e+00  2.19258e-01 -2.75730e-02
       H -2.68634e+00  1.28867e+00  1.18640e+00
       H -4.14790e+00  1.26710e+00  2.68115e-01
4
# CELL(abcABC): 1000.00000  1000.00000  1000.00000    90.00000    90.00000    90.00000  Step:          85  Bead:       0 positions{angstrom}  cell{angstrom}