CHARMM-GUI lammps input

             11115  atoms
              7415  bonds
              3731  angles
                44  dihedrals
                 7  impropers

                19  atom types
                18  bond types
                28  angle types
                21  dihedral types
                 6  improper types

    -24.5000      24.5000 xlo xhi
    -24.5000      24.5000 ylo yhi
    -24.5000      24.5000 zlo zhi

Masses

       1         1.008  # H
       2         1.008  # HA2
       3         1.008  # HA3
       4         1.008  # HB1
       5         1.008  # HT
       6        12.011  # C
       7        12.011  # CC
       8        12.011  # CD
       9        12.011  # CT1
      10        12.011  # CT2
      11        12.011  # CT3
      12        14.007  # NH1
      13        14.007  # NH2
      14        15.999  # O
      15        15.999  # OB
      16        15.999  # OH1
      17        15.999  # OT
      18        35.450  # CLA
      19        39.098  # POT

PairIJ Coeffs

       1        1 0.04600000000000 0.40001352444501 0.04600000000000 0.40001352444501 # H H
       1        2 0.03954743986657 1.39381104453056 0.03954743986657 1.39381104453056 # H HA2
       1        3 0.03322649545167 1.39381104453056 0.03322649545167 1.39381104453056 # H HA3
       1        4 0.03181194744117 1.37599307016775 0.03181194744117 1.37599307016775 # H HB1
       1        5 0.04600000000000 0.40001352444501 0.04600000000000 0.40001352444501 # H HT
       1        6 0.07113367697511 1.98180419850318 0.07113367697511 1.98180419850318 # H C
       1        7 0.05674504383644 1.98180419850318 0.05674504383644 1.98180419850318 # H CC
       1        8 0.05674504383644 1.98180419850318 0.05674504383644 1.98180419850318 # H CD
       1        9 0.03836665218650 1.98180419850318 0.02144761058953 1.89271432668915 # H CT1
       1       10 0.05075431016180 1.99071318568459 0.02144761058953 1.89271432668915 # H CT2
       1       11 0.05989991652749 2.01744014722880 0.02144761058953 1.89271432668915 # H CT3
       1       12 0.09591663046625 1.84816939078213 0.09591663046625 1.58089977534003 # H NH1
       1       13 0.09591663046625 1.84816939078213 0.09591663046625 1.84816939078213 # H NH2
       1       14 0.07429670248403 1.71453458306108 0.07429670248403 1.44726496761898 # H O
       1       15 0.07429670248403 1.71453458306108 0.07429670248403 1.44726496761898 # H OB
       1       16 0.08364568129916 1.77689749333091 0.08364568129916 1.77689749333091 # H OH1
       1       17 0.08364568129916 1.77529387563825 0.08364568129916 1.77529387563825 # H OT
       1       18 0.08306623862918 2.22234685240108 0.08306623862918 2.22234685240108 # H CLA
       1       19 0.06326136261574 1.77132937634253 0.06326136261574 1.77132937634253 # H POT
       2        2 0.03400000000000 2.38760856461611 0.03400000000000 2.38760856461611 # HA2 HA2
       2        3 0.02856571371417 2.38760856461611 0.02856571371417 2.38760856461611 # HA2 HA3
       2        4 0.02734958866235 2.36979059025330 0.02734958866235 2.36979059025330 # HA2 HB1
       2        5 0.03954743986657 1.39381104453056 0.03954743986657 1.39381104453056 # HA2 HT
       2        6 0.06115553940568 2.97560171858873 0.06115553940568 2.97560171858873 # HA2 C
       2        7 0.04878524367060 2.97560171858873 0.04878524367060 2.97560171858873 # HA2 CC
       2        8 0.04878524367060 2.97560171858873 0.04878524367060 2.97560171858873 # HA2 CD
       2        9 0.03298484500494 2.97560171858873 0.01843908891459 2.88651184677470 # HA2 CT1
       2       10 0.04363484845854 2.98451070577014 0.01843908891459 2.88651184677470 # HA2 CT2
       2       11 0.05149757275833 3.01123766731435 0.01843908891459 2.88651184677470 # HA2 CT3
       2       12 0.08246211251235 2.84196691086768 0.08246211251235 2.57469729542558 # HA2 NH1
       2       13 0.08246211251235 2.84196691086768 0.08246211251235 2.84196691086768 # HA2 NH2
       2       14 0.06387487769069 2.70833210314663 0.06387487769069 2.44106248770453 # HA2 O
       2       15 0.06387487769069 2.70833210314663 0.06387487769069 2.44106248770453 # HA2 OB
       2       16 0.07191244676688 2.77069501341646 0.07191244676688 2.77069501341646 # HA2 OH1
       2       17 0.07191244676688 2.76909139572380 0.07191244676688 2.76909139572380 # HA2 OT
       2       18 0.07141428428543 3.21614437248662 0.07141428428543 3.21614437248662 # HA2 CLA
       2       19 0.05438749856355 2.76512689642808 0.05438749856355 2.76512689642808 # HA2 POT
       3        3 0.02400000000000 2.38760856461611 0.02400000000000 2.38760856461611 # HA3 HA3
       3        4 0.02297825058615 2.36979059025330 0.02297825058615 2.36979059025330 # HA3 HB1
       3        5 0.03322649545167 1.39381104453056 0.03322649545167 1.39381104453056 # HA3 HT
       3        6 0.05138093031466 2.97560171858873 0.05138093031466 2.97560171858873 # HA3 C
       3        7 0.04098780306384 2.97560171858873 0.04098780306384 2.97560171858873 # HA3 CC
       3        8 0.04098780306384 2.97560171858873 0.04098780306384 2.97560171858873 # HA3 CD
       3        9 0.02771281292110 2.97560171858873 0.01549193338483 2.88651184677470 # HA3 CT1
       3       10 0.03666060555965 2.98451070577014 0.01549193338483 2.88651184677470 # HA3 CT2
       3       11 0.04326661530557 3.01123766731435 0.01549193338483 2.88651184677470 # HA3 CT3
       3       12 0.06928203230276 2.84196691086768 0.06928203230276 2.57469729542558 # HA3 NH1
       3       13 0.06928203230276 2.84196691086768 0.06928203230276 2.84196691086768 # HA3 NH2
       3       14 0.05366563145999 2.70833210314663 0.05366563145999 2.44106248770453 # HA3 O
       3       15 0.05366563145999 2.70833210314663 0.05366563145999 2.44106248770453 # HA3 OB
       3       16 0.06041854020084 2.77069501341646 0.06041854020084 2.77069501341646 # HA3 OH1
       3       17 0.06041854020084 2.76909139572380 0.06041854020084 2.76909139572380 # HA3 OT
       3       18 0.06000000000000 3.21614437248662 0.06000000000000 3.21614437248662 # HA3 CLA
       3       19 0.04569463863518 2.76512689642808 0.04569463863518 2.76512689642808 # HA3 POT
       4        4 0.02200000000000 2.35197261589050 0.02200000000000 2.35197261589050 # HB1 HB1
       4        5 0.03181194744117 1.37599307016775 0.03181194744117 1.37599307016775 # HB1 HT
       4        6 0.04919349550500 2.95778374422593 0.04919349550500 2.95778374422593 # HB1 C
       4        7 0.03924283374070 2.95778374422593 0.03924283374070 2.95778374422593 # HB1 CC
       4        8 0.03924283374070 2.95778374422593 0.03924283374070 2.95778374422593 # HB1 CD
       4        9 0.02653299832284 2.95778374422593 0.01483239697419 2.86869387241189 # HB1 CT1
       4       10 0.03509985754957 2.96669273140733 0.01483239697419 2.86869387241189 # HB1 CT2
       4       11 0.04142463035442 2.99341969295154 0.01483239697419 2.86869387241189 # HB1 CT3
       4       12 0.06633249580711 2.82414893650488 0.06633249580711 2.55687932106277 # HB1 NH1
       4       13 0.06633249580711 2.82414893650488 0.06633249580711 2.82414893650488 # HB1 NH2
       4       14 0.05138093031466 2.69051412878382 0.05138093031466 2.42324451334172 # HB1 O
       4       15 0.05138093031466 2.69051412878382 0.05138093031466 2.42324451334172 # HB1 OB
       4       16 0.05784634819935 2.75287703905365 0.05784634819935 2.75287703905365 # HB1 OH1
       4       17 0.05784634819935 2.75127342136100 0.05784634819935 2.75127342136100 # HB1 OT
       4       18 0.05744562646538 3.19832639812382 0.05744562646538 3.19832639812382 # HB1 CLA
       4       19 0.04374928570845 2.74730892206527 0.04374928570845 2.74730892206527 # HB1 POT
       5        5 0.04600000000000 0.40001352444501 0.04600000000000 0.40001352444501 # HT HT
       5        6 0.07113367697511 1.98180419850318 0.07113367697511 1.98180419850318 # HT C
       5        7 0.05674504383644 1.98180419850318 0.05674504383644 1.98180419850318 # HT CC
       5        8 0.05674504383644 1.98180419850318 0.05674504383644 1.98180419850318 # HT CD
       5        9 0.03836665218650 1.98180419850318 0.02144761058953 1.89271432668915 # HT CT1
       5       10 0.05075431016180 1.99071318568459 0.02144761058953 1.89271432668915 # HT CT2
       5       11 0.05989991652749 2.01744014722880 0.02144761058953 1.89271432668915 # HT CT3
       5       12 0.09591663046625 1.84816939078213 0.09591663046625 1.58089977534003 # HT NH1
       5       13 0.09591663046625 1.84816939078213 0.09591663046625 1.84816939078213 # HT NH2
       5       14 0.07429670248403 1.71453458306108 0.07429670248403 1.44726496761898 # HT O
       5       15 0.07429670248403 1.71453458306108 0.07429670248403 1.44726496761898 # HT OB
       5       16 0.08364568129916 1.77689749333091 0.08364568129916 1.77689749333091 # HT OH1
       5       17 0.08364568129916 1.77529387563825 0.08364568129916 1.77529387563825 # HT OT
       5       18 0.08306623862918 2.22234685240108 0.08306623862918 2.22234685240108 # HT CLA
       5       19 0.06326136261574 1.77132937634253 0.06326136261574 1.77132937634253 # HT POT
       6        6 0.11000000000000 3.56359487256136 0.11000000000000 3.56359487256136 # C C
       6        7 0.08774964387392 3.56359487256136 0.08774964387392 3.56359487256136 # C CC
       6        8 0.08774964387392 3.56359487256136 0.08774964387392 3.56359487256136 # C CD
       6        9 0.05932958789677 3.56359487256136 0.03316624790355 3.47450500074732 # C CT1
       6       10 0.07848566748139 3.57250385974276 0.03316624790355 3.47450500074732 # C CT2
       6       11 0.09262828941528 3.59923082128697 0.03316624790355 3.47450500074732 # C CT3
       6       12 0.14832396974191 3.42996006484031 0.14832396974191 3.16269044939820 # C NH1
       6       13 0.14832396974191 3.42996006484031 0.14832396974191 3.42996006484031 # C NH2
       6       14 0.11489125293076 3.29632525711926 0.11489125293076 3.02905564167715 # C O
       6       15 0.11489125293076 3.29632525711926 0.11489125293076 3.02905564167715 # C OB
       6       16 0.12934836682386 3.35868816738908 0.12934836682386 3.35868816738908 # C OH1
       6       17 0.12934836682386 3.35708454969643 0.12934836682386 3.35708454969643 # C OT
       6       18 0.12845232578665 3.80413752645925 0.12845232578665 3.80413752645925 # C CLA
       6       19 0.09782637681116 3.35312005040070 0.09782637681116 3.35312005040070 # C POT
       7        7 0.07000000000000 3.56359487256136 0.07000000000000 3.56359487256136 # CC CC
       7        8 0.07000000000000 3.56359487256136 0.07000000000000 3.56359487256136 # CC CD
       7        9 0.04732863826480 3.56359487256136 0.02645751311065 3.47450500074732 # CC CT1
       7       10 0.06260990336999 3.57250385974276 0.02645751311065 3.47450500074732 # CC CT2
       7       11 0.07389181280764 3.59923082128697 0.02645751311065 3.47450500074732 # CC CT3
       7       12 0.11832159566199 3.42996006484031 0.11832159566199 3.16269044939820 # CC NH1
       7       13 0.11832159566199 3.42996006484031 0.11832159566199 3.42996006484031 # CC NH2
       7       14 0.09165151389912 3.29632525711926 0.09165151389912 3.02905564167715 # CC O
       7       15 0.09165151389912 3.29632525711926 0.09165151389912 3.02905564167715 # CC OB
       7       16 0.10318430113152 3.35868816738908 0.10318430113152 3.35868816738908 # CC OH1
       7       17 0.10318430113152 3.35708454969643 0.10318430113152 3.35708454969643 # CC OT
       7       18 0.10246950765960 3.80413752645925 0.10246950765960 3.80413752645925 # CC CLA
       7       19 0.07803845206051 3.35312005040070 0.07803845206051 3.35312005040070 # CC POT
       8        8 0.07000000000000 3.56359487256136 0.07000000000000 3.56359487256136 # CD CD
       8        9 0.04732863826480 3.56359487256136 0.02645751311065 3.47450500074732 # CD CT1
       8       10 0.06260990336999 3.57250385974276 0.02645751311065 3.47450500074732 # CD CT2
       8       11 0.07389181280764 3.59923082128697 0.02645751311065 3.47450500074732 # CD CT3
       8       12 0.11832159566199 3.42996006484031 0.11832159566199 3.16269044939820 # CD NH1
       8       13 0.11832159566199 3.42996006484031 0.11832159566199 3.42996006484031 # CD NH2
       8       14 0.09165151389912 3.29632525711926 0.09165151389912 3.02905564167715 # CD O
       8       15 0.09165151389912 3.29632525711926 0.09165151389912 3.02905564167715 # CD OB
       8       16 0.10318430113152 3.35868816738908 0.10318430113152 3.35868816738908 # CD OH1
       8       17 0.10318430113152 3.35708454969643 0.10318430113152 3.35708454969643 # CD OT
       8       18 0.10246950765960 3.80413752645925 0.10246950765960 3.80413752645925 # CD CLA
       8       19 0.07803845206051 3.35312005040070 0.07803845206051 3.35312005040070 # CD POT
       9        9 0.03200000000000 3.56359487256136 0.01000000000000 3.38541512893329 # CT1 CT1
       9       10 0.04233202097703 3.57250385974276 0.01000000000000 3.38541512893329 # CT1 CT2
       9       11 0.04995998398719 3.59923082128697 0.01000000000000 3.38541512893329 # CT1 CT3
       9       12 0.08000000000000 3.42996006484031 0.04472135955000 3.07360057758417 # CT1 NH1
       9       13 0.08000000000000 3.42996006484031 0.04472135955000 3.34087019302627 # CT1 NH2
       9       14 0.06196773353932 3.29632525711926 0.03464101615138 2.93996576986312 # CT1 O
       9       15 0.06196773353932 3.29632525711926 0.03464101615138 2.93996576986312 # CT1 OB
       9       16 0.06976532089799 3.35868816738908 0.03900000000000 3.26959829557505 # CT1 OH1
       9       17 0.06976532089799 3.35708454969643 0.03900000000000 3.26799467788239 # CT1 OT
       9       18 0.06928203230276 3.80413752645925 0.03872983346207 3.71504765464521 # CT1 CLA
       9       19 0.05276362383309 3.35312005040070 0.02949576240751 3.26403017858667 # CT1 POT
      10       10 0.05600000000000 3.58141284692416 0.01000000000000 3.38541512893329 # CT2 CT2
      10       11 0.06609084656743 3.60813980846837 0.01000000000000 3.38541512893329 # CT2 CT3
      10       12 0.10583005244258 3.43886905202171 0.04472135955000 3.07360057758417 # CT2 NH1
      10       13 0.10583005244258 3.43886905202171 0.04472135955000 3.34087019302627 # CT2 NH2
      10       14 0.08197560612768 3.30523424430066 0.03464101615138 2.93996576986312 # CT2 O
      10       15 0.08197560612768 3.30523424430066 0.03464101615138 2.93996576986312 # CT2 OB
      10       16 0.09229084461635 3.36759715457048 0.03900000000000 3.26959829557505 # CT2 OH1
      10       17 0.09229084461635 3.36599353687783 0.03900000000000 3.26799467788239 # CT2 OT
      10       18 0.09165151389912 3.81304651364065 0.03872983346207 3.71504765464521 # CT2 CLA
      10       19 0.06979971346646 3.36202903758211 0.02949576240751 3.26403017858667 # CT2 POT
      11       11 0.07800000000000 3.63486677001258 0.01000000000000 3.38541512893329 # CT3 CT3
      11       12 0.12489995996797 3.46559601356592 0.04472135955000 3.07360057758417 # CT3 NH1
      11       13 0.12489995996797 3.46559601356592 0.04472135955000 3.34087019302627 # CT3 NH2
      11       14 0.09674709297958 3.33196120584487 0.03464101615138 2.93996576986312 # CT3 O
      11       15 0.09674709297958 3.33196120584487 0.03464101615138 2.93996576986312 # CT3 OB
      11       16 0.10892107234140 3.39432411611469 0.03900000000000 3.26959829557505 # CT3 OH1
      11       17 0.10892107234140 3.39272049842204 0.03900000000000 3.26799467788239 # CT3 OT
      11       18 0.10816653826392 3.83977347518486 0.03872983346207 3.71504765464521 # CT3 CLA
      11       19 0.08237718130648 3.38875599912632 0.02949576240751 3.26403017858667 # CT3 POT
      12       12 0.20000000000000 3.29632525711926 0.20000000000000 2.76178602623505 # NH1 NH1
      12       13 0.20000000000000 3.29632525711926 0.20000000000000 3.02905564167715 # NH1 NH2
      12       14 0.15491933384830 3.16269044939820 0.15491933384830 2.62815121851400 # NH1 O
      12       15 0.15491933384830 3.16269044939820 0.15491933384830 2.62815121851400 # NH1 OB
      12       16 0.17441330224498 3.22505335966803 0.17441330224498 2.95778374422593 # NH1 OH1
      12       17 0.17441330224498 3.22344974197538 0.17441330224498 2.95618012653327 # NH1 OT
      12       18 0.17320508075689 3.67050271873820 0.17320508075689 3.40323310329610 # NH1 CLA
      12       19 0.13190905958273 3.21948524267965 0.13190905958273 2.95221562723755 # NH1 POT
      13       13 0.20000000000000 3.29632525711926 0.20000000000000 3.29632525711926 # NH2 NH2
      13       14 0.15491933384830 3.16269044939820 0.15491933384830 2.89542083395610 # NH2 O
      13       15 0.15491933384830 3.16269044939820 0.15491933384830 2.89542083395610 # NH2 OB
      13       16 0.17441330224498 3.22505335966803 0.17441330224498 3.22505335966803 # NH2 OH1
      13       17 0.17441330224498 3.22344974197538 0.17441330224498 3.22344974197538 # NH2 OT
      13       18 0.17320508075689 3.67050271873820 0.17320508075689 3.67050271873820 # NH2 CLA
      13       19 0.13190905958273 3.21948524267965 0.13190905958273 3.21948524267965 # NH2 POT
      14       14 0.12000000000000 3.02905564167715 0.12000000000000 2.49451641079295 # O O
      14       15 0.12000000000000 3.02905564167715 0.12000000000000 2.49451641079295 # O OB
      14       16 0.13509996299037 3.09141855194698 0.13509996299037 2.82414893650488 # O OH1
      14       17 0.13509996299037 3.08981493425432 0.13509996299037 2.82254531881222 # O OT
      14       18 0.13416407864999 3.53686791101715 0.13416407864999 3.26959829557505 # O CLA
      14       19 0.10217631819556 3.08585043495860 0.10217631819556 2.81858081951650 # O POT
      15       15 0.12000000000000 3.02905564167715 0.12000000000000 2.49451641079295 # OB OB
      15       16 0.13509996299037 3.09141855194698 0.13509996299037 2.82414893650488 # OB OH1
      15       17 0.13509996299037 3.08981493425432 0.13509996299037 2.82254531881222 # OB OT
      15       18 0.13416407864999 3.53686791101715 0.13416407864999 3.26959829557505 # OB CLA
      15       19 0.10217631819556 3.08585043495860 0.10217631819556 2.81858081951650 # OB POT
      16       16 0.15210000000000 3.15378146221680 0.15210000000000 3.15378146221680 # OH1 OH1
      16       17 0.15210000000000 3.15217784452415 0.15210000000000 3.15217784452415 # OH1 OT
      16       18 0.15104635050209 3.59923082128697 0.15104635050209 3.59923082128697 # OH1 CLA
      16       19 0.11503347338927 3.14821334522842 0.11503347338927 3.14821334522842 # OH1 POT
      17       17 0.15210000000000 3.15057422683150 0.15210000000000 3.15057422683150 # OT OT
      17       18 0.15104635050209 3.59762720359432 0.15104635050209 3.59762720359432 # OT CLA
      17       19 0.11503347338927 3.14660972753577 0.11503347338927 3.14660972753577 # OT POT
      18       18 0.15000000000000 4.04468018035714 0.15000000000000 4.04468018035714 # CLA CLA
      18       19 0.11420000000000 3.63575766873072 0.11420000000000 3.63575766873072 # CLA POT
      19       19 0.08700000000000 3.14264522824005 0.08700000000000 3.14264522824005 # POT POT

Atoms

           1       90     11  -0.270     3.3673291945     0.5191139102     0.0222647615 # PROA-90-ASP-CAY-CT3
           2       90      3   0.090     4.1716803215    -0.0134928588     0.5731708493 # PROA-90-ASP-HY1-HA3
           3       90      3   0.090     3.5078106042     1.6134831004     0.1566955597 # PROA-90-ASP-HY2-HA3
           4       90      3   0.090     3.4441769115     0.2848094791    -1.0595850422 # PROA-90-ASP-HY3-HA3
           5       90      6   0.510     2.0375994355     0.1115343168     0.5568652132 # PROA-90-ASP-CY-C
           6       90     14  -0.510     1.9470379928    -0.5800171198     1.5700064845 # PROA-90-ASP-OY-O
           7       90     12  -0.470     0.9599556019     0.5390588986    -0.1249936431 # PROA-90-ASP-N-NH1
           8       90      1   0.310     1.0493610524     1.0617684798    -0.9696559789 # PROA-90-ASP-HN-H
           9       90      9   0.070    -0.3805210534     0.1842938077     0.3313670331 # PROA-90-ASP-CA-CT1
          10       90      4   0.090    -0.4725834660     0.5472778580     1.3474498396 # PROA-90-ASP-HA-HB1
          11       90     10  -0.210    -1.4432115892     0.8763345512    -0.5388940970 # PROA-90-ASP-CB-CT2
          12       90      2   0.090    -1.4709157591     0.4318094036    -1.5570760905 # PROA-90-ASP-HB1-HA2
          13       90      2   0.090    -1.1648835776     1.9425626521    -0.6528717165 # PROA-90-ASP-HB2-HA2
          14       90      8   0.750    -2.8286524864     0.8501291654     0.0713098020 # PROA-90-ASP-CG-CD
          15       90     15  -0.550    -3.1011146203     1.6905190274     0.9508331191 # PROA-90-ASP-OD1-OB
          16       90     16  -0.610    -3.6367725598    -0.0229796214    -0.3242821511 # PROA-90-ASP-OD2-OH1
          17       90      1   0.440    -4.4121625010     0.0126429510     0.2394841609 # PROA-90-ASP-HD2-H
          18       90      7   0.550    -0.6485303715    -1.3033632772     0.3836107210 # PROA-90-ASP-C-CC
          19       90     14  -0.550    -1.4474427626    -1.7335532733     1.2080708830 # PROA-90-ASP-O-O
          20       90     13  -0.620     0.0309701857    -2.0740364841    -0.5074233978 # PROA-90-ASP-NT-NH2
          21       90      1   0.320    -0.1131345322    -3.0586715401    -0.4535621323 # PROA-90-ASP-HT1-H
          22       90      1   0.300     0.7407763514    -1.6702339867    -1.0831738408 # PROA-90-ASP-HT2-H
          23        1     17  -0.834   -12.3397387030   -14.2386214493   -17.8993226778 # SOLV-1-TIP3-OH2-OT
          24        1      5   0.417   -12.5725019438   -13.2902159673   -18.0366725497 # SOLV-1-TIP3-H1-HT
          25        1      5   0.417   -13.0095335137   -14.6486700467   -18.4741369571 # SOLV-1-TIP3-H2-HT
          26        2     17  -0.834   -13.5515486460   -15.0159268483   -13.8646821947 # SOLV-2-TIP3-OH2-OT
          27        2      5   0.417   -13.2882021447   -15.4594191191   -13.0333573946 # SOLV-2-TIP3-H1-HT
          28        2      5   0.417   -14.0241746715   -15.7374897071   -14.3127635287 # SOLV-2-TIP3-H2-HT
          29        3     17  -0.834   -21.3184393481   -15.7774918696   -12.6377313908 # SOLV-3-TIP3-OH2-OT
          30        3      5   0.417   -21.2581279275   -16.5284240462   -12.0148143852 # SOLV-3-TIP3-H1-HT
          31        3      5   0.417   -20.3795768506   -15.5502371287   -12.7693472131 # SOLV-3-TIP3-H2-HT
          32        4     17  -0.834    -9.7198215779   -11.9502519379   -15.6588700217 # SOLV-4-TIP3-OH2-OT
          33        4      5   0.417   -10.1706709727   -12.6632975663   -15.1733188500 # SOLV-4-TIP3-H1-HT
          34        4      5   0.417    -9.4878706105   -11.3221905681   -14.9497133513 # SOLV-4-TIP3-H2-HT
          35        5     17  -0.834   -20.0125033203   -10.8862526180   -14.3513034831 # SOLV-5-TIP3-OH2-OT
          36        5      5   0.417   -20.2261017802   -11.8122835760   -14.6034866446 # SOLV-5-TIP3-H1-HT
          37        5      5   0.417   -19.0414408316   -10.9565168148   -14.2784893816 # SOLV-5-TIP3-H2-HT
          38        6     17  -0.834   -23.3416390625   -17.3671090488   -19.2048672526 # SOLV-6-TIP3-OH2-OT
          39        6      5   0.417   -23.9411583473   -16.6022873097   -19.1816920249 # SOLV-6-TIP3-H1-HT
          40        6      5   0.417   -23.6835811657   -17.8504645032   -19.9672019755 # SOLV-6-TIP3-H2-HT
          41        7     17  -0.834   -23.0712552605   -15.2009357405   -15.9721435281 # SOLV-7-TIP3-OH2-OT
          42        7      5   0.417   -22.7687558756   -16.1281867857   -15.8697795820 # SOLV-7-TIP3-H1-HT
          43        7      5   0.417   -22.5707402087   -14.9059942365   -16.7403241895 # SOLV-7-TIP3-H2-HT
          44        8     17  -0.834   -12.4441096198    -7.0876727103   -15.3662268120 # SOLV-8-TIP3-OH2-OT
          45        8      5   0.417   -12.0929399860    -7.6987857100   -16.0433497181 # SOLV-8-TIP3-H1-HT
          46        8      5   0.417   -12.8766014687    -7.6925330529   -14.7580711671 # SOLV-8-TIP3-H2-HT
          47        9     17  -0.834   -15.2077302988   -12.5403553024   -13.7763281635 # SOLV-9-TIP3-OH2-OT
          48        9      5   0.417   -14.7543394185   -13.3321457735   -14.1202281274 # SOLV-9-TIP3-H1-HT
          49        9      5   0.417   -14.4952239940   -12.2081927186   -13.1899049372 # SOLV-9-TIP3-H2-HT
          50       10     17  -0.834    -6.1907196371   -21.1163741444   -12.9092428674 # SOLV-10-TIP3-OH2-OT
          51       10      5   0.417    -6.0436772949   -20.3409249017   -12.3289751532 # SOLV-10-TIP3-H1-HT
          52       10      5   0.417    -5.5827983857   -20.9185389400   -13.6513887294 # SOLV-10-TIP3-H2-HT
          53       11     17  -0.834   -11.9926642688   -18.3006717126   -13.7546649923 # SOLV-11-TIP3-OH2-OT
          54       11      5   0.417   -11.7606715070   -19.2423334586   -13.6229180081 # SOLV-11-TIP3-H1-HT
          55       11      5   0.417   -12.1805166733   -18.2997707636   -14.7155081484 # SOLV-11-TIP3-H2-HT
          56       12     17  -0.834   -18.3701866308   -20.2251598938   -16.3051705999 # SOLV-12-TIP3-OH2-OT
          57       12      5   0.417   -18.3491024259   -19.3540165765   -16.7530270414 # SOLV-12-TIP3-H1-HT
          58       12      5   0.417   -18.9229685356   -20.7215003252   -16.9457123675 # SOLV-12-TIP3-H2-HT
          59       13     17  -0.834   -10.7693464044   -19.9582448231   -18.0450515160 # SOLV-13-TIP3-OH2-OT
          60       13      5   0.417   -10.3070878674   -20.1990179938   -17.2053637552 # SOLV-13-TIP3-H1-HT
          61       13      5   0.417   -10.0444650380   -19.5350556576   -18.5445412761 # SOLV-13-TIP3-H2-HT
          62       14     17  -0.834   -22.0755269294   -17.7554320181   -15.6384499869 # SOLV-14-TIP3-OH2-OT
          63       14      5   0.417   -21.3572881158   -18.1972832026   -15.1469615469 # SOLV-14-TIP3-H1-HT
          64       14      5   0.417   -21.9072729861   -18.1027933755   -16.5408880742 # SOLV-14-TIP3-H2-HT
          65       15     17  -0.834   -17.3213114215   -16.2995097216   -15.9067540274 # SOLV-15-TIP3-OH2-OT
          66       15      5   0.417   -16.4487145164   -16.6860893249   -15.6756838767 # SOLV-15-TIP3-H1-HT
          67       15      5   0.417   -17.6849889202   -16.9728120722   -16.5243884223 # SOLV-15-TIP3-H2-HT
          68       16     17  -0.834    -5.8536551627   -19.4086348215   -10.7785575997 # SOLV-16-TIP3-OH2-OT
          69       16      5   0.417    -6.6774994609   -18.8930493422   -10.9294568350 # SOLV-16-TIP3-H1-HT
          70       16      5   0.417    -5.8009464068   -19.3951990441    -9.8085085745 # SOLV-16-TIP3-H2-HT
          71       17     17  -0.834   -19.8147604380   -21.1679883569   -12.2655457109 # SOLV-17-TIP3-OH2-OT
          72       17      5   0.417   -20.1298725610   -20.5805382931   -12.9813101864 # SOLV-17-TIP3-H1-HT
          73       17      5   0.417   -20.4716944360   -20.9603712905   -11.5612973194 # SOLV-17-TIP3-H2-HT
          74       18     17  -0.834   -13.0779600235   -11.8323808995   -18.8316769862 # SOLV-18-TIP3-OH2-OT
          75       18      5   0.417   -12.9567658890   -11.6084598246   -19.7656161788 # SOLV-18-TIP3-H1-HT
          76       18      5   0.417   -13.4460884230   -10.9899860604   -18.4867744700 # SOLV-18-TIP3-H2-HT
          77       19     17  -0.834   -17.3190638048   -13.4153645306   -12.2732537504 # SOLV-19-TIP3-OH2-OT
          78       19      5   0.417   -17.8277429408   -12.6432888146   -11.9389249011 # SOLV-19-TIP3-H1-HT
          79       19      5   0.417   -16.6029531973   -12.9787537574   -12.7828666901 # SOLV-19-TIP3-H2-HT
          80       20     17  -0.834    -9.7766649952   -20.4410251650   -15.5886684092 # SOLV-20-TIP3-OH2-OT
          81       20      5   0.417   -10.3037475441   -20.8296606451   -14.8674957829 # SOLV-20-TIP3-H1-HT
          82       20      5   0.417    -9.1784912545   -19.8526591871   -15.0781188343 # SOLV-20-TIP3-H2-HT
          83       21     17  -0.834   -20.1971384621   -19.4179364095   -14.3863192125 # SOLV-21-TIP3-OH2-OT
          84       21      5   0.417   -19.6189488364   -18.8641501405   -13.8166362302 # SOLV-21-TIP3-H1-HT
          85       21      5   0.417   -19.5316266652   -19.7827209913   -15.0119496225 # SOLV-21-TIP3-H2-HT
          86       22     17  -0.834   -18.8260192337   -11.3250149639   -11.1160744942 # SOLV-22-TIP3-OH2-OT
          87       22      5   0.417   -18.8019183182   -10.3495619626   -11.2241902339 # SOLV-22-TIP3-H1-HT
          88       22      5   0.417   -19.7558708720   -11.4359580428   -10.8452495688 # SOLV-22-TIP3-H2-HT
          89       23     17  -0.834   -22.7981530724   -11.9941942957   -20.0178415415 # SOLV-23-TIP3-OH2-OT
          90       23      5   0.417   -23.6125843811   -11.7908861378   -20.5221114130 # SOLV-23-TIP3-H1-HT
          91       23      5   0.417   -22.5540819961   -11.1126337982   -19.6681574068 # SOLV-23-TIP3-H2-HT
          92       24     17  -0.834    -9.3498877867    -9.9439312956   -13.6650790835 # SOLV-24-TIP3-OH2-OT
          93       24      5   0.417   -10.3253603612    -9.9259547855   -13.5262285582 # SOLV-24-TIP3-H1-HT
          94       24      5   0.417    -9.1711015468    -9.0104836680   -13.8987001163 # SOLV-24-TIP3-H2-HT
          95       25     17  -0.834    -8.6122281374   -21.5734654651   -11.6918033777 # SOLV-25-TIP3-OH2-OT
          96       25      5   0.417    -9.3168739540   -21.7047791105   -12.3370514788 # SOLV-25-TIP3-H1-HT
          97       25      5   0.417    -7.8325903678   -21.4433066326   -12.2834066312 # SOLV-25-TIP3-H2-HT
          98       26     17  -0.834   -16.2853299286   -23.4883657101   -15.0560725286 # SOLV-26-TIP3-OH2-OT
          99       26      5   0.417   -16.4034678683   -24.4357142514   -15.1906042581 # SOLV-26-TIP3-H1-HT
         100       26      5   0.417   -17.1811147613   -23.2026128633   -14.7900441246 # SOLV-26-TIP3-H2-HT