ITEM: TIMESTEP
1000
ITEM: NUMBER OF ATOMS
11115
ITEM: BOX BOUNDS pp pp pp
-2.4500000000000000e+01 2.4500000000000000e+01
-2.4500000000000000e+01 2.4500000000000000e+01
-2.4500000000000000e+01 2.4500000000000000e+01
ITEM: ATOMS id type x y z vx vy vz ix iy iz
38 17 -22.9815 -17.2343 -20.3113 0.00315955 0.000599332 0.00393007 0 0 0
39 5 -23.3738 -16.3465 -20.442 -0.00659357 0.0140965 0.018622 0 0 0
40 5 -23.25 -17.6752 -21.1529 -0.0348067 -0.00235492 -0.016564 0 0 0
57 5 -17.8977 -19.5685 -17.2554 0.0127609 -0.00562209 -0.0126675 0 0 0
58 5 -18.4169 -20.9822 -17.4349 -0.0276718 -0.00658357 -0.000409179 0 0 0
64 5 -20.709 -17.3395 -17.457 0.00339537 0.00521723 0.0217285 0 0 0
67 5 -17.4554 -16.633 -16.9658 -0.0103652 0.00998319 -0.0169776 0 0 0
209 17 -17.9504 -18.0001 -18.0085 0.00203061 -0.00053762 0.00359041 0 0 0
210 5 -18.746 -17.8382 -18.5543 -0.00178657 -0.0146713 -0.015359 0 0 0
211 5 -17.2647 -18.2321 -18.6691 -0.00104752 0.026499 -0.0408858 0 0 0
224 17 -18.3238 -20.6527 -23.9986 -0.000942521 0.00063349 0.00308876 0 0 0
225 5 -18.7488 -21.0873 -23.2346 -0.0147082 0.0351602 0.0159787 0 0 0
226 5 -18.845 -19.8213 -24.043 0.0300706 0.00154813 0.0263149 0 0 0
227 17 -24.0698 -19.6432 -19.3504 -0.0012371 0.0026216 -0.000541296 0 0 0
228 5 -23.6282 -19.7333 -18.4975 -0.00976087 -0.0242474 0.00284713 0 0 0
229 5 -23.6644 -18.82 -19.6958 -0.000576489 -0.0126091 0.00358403 0 0 0
230 17 -23.7633 -18.6676 -22.4658 0.00453953 0.00719941 0.00101813 0 0 0
231 5 -23.2767 -18.4225 -23.2775 0.0333543 0.00199769 -0.0217516 0 0 0
232 5 -24.3706 -19.3608 -22.7925 0.0130023 0.0170951 -0.00156987 0 0 0
239 17 -20.4521 -17.6369 -19.2367 0.00386044 -0.00129234 -0.00908801 0 0 0
240 5 -21.3634 -17.4582 -19.5578 -0.0198227 0.0238755 0.00424108 0 0 0
241 5 -19.9954 -17.788 -20.0897 -0.00598634 0.0115522 -0.0159739 0 0 0
242 17 -18.8344 -17.9176 -21.4343 -0.00561128 -0.000763464 -0.00434781 0 0 0
244 5 -19.2445 -18.064 -22.3179 -0.00225792 0.00516779 -0.0156785 0 0 0
248 17 -19.7428 -18.3197 -23.9644 0.000935792 -0.00547008 0.00247199 0 0 0
249 5 -20.6886 -18.1849 -24.2011 -0.00694398 -0.0203963 0.0002816 0 0 0
10359 5 17.9103 -4.60087 -24.4351 0.00199754 -0.0257276 -0.004777 0 0 1
260 17 -19.1343 -22.0304 -18.7422 0.00985043 0.000915934 0.0023366 0 0 0
261 5 -19.7302 -22.7831 -18.554 0.0439424 0.00102364 0.0145571 0 0 0
262 5 -18.2772 -22.4941 -18.8513 0.0138615 -0.0163886 0.00306785 0 0 0
374 17 -19.1896 -21.7863 -21.5816 0.0011323 0.00163891 0.00313128 0 0 0
375 5 -19.5401 -21.6697 -20.6787 0.00702031 0.00592795 0.0164183 0 0 0
376 5 -18.246 -21.5809 -21.3986 0.00022382 0.0160763 0.00401137 0 0 0
3056 17 23.3184 -0.0716851 -9.71143 -0.00267149 -0.00166651 -0.00212434 0 0 0
387 5 -22.243 -16.6696 -24.4343 0.0185069 0.00159088 0.00291201 0 0 0
3932 17 7.79637 -24.1043 -5.79096 -0.00578113 0.00122821 -0.00520287 0 1 0
560 17 -24.1725 -21.9399 -20.9838 -5.11832e-05 -0.00564337 -0.0093898 0 0 0
562 5 -24.012 -21.13 -20.4567 -0.00728903 -0.0201046 -0.00815451 0 0 0
10061 17 7.87212 -2.38877 -24.3078 0.00393629 -0.00506494 -0.00639876 0 0 1
7563 5 21.026 -3.68893 -0.224286 0.0133016 0.0120857 -0.00252065 0 0 0
7564 5 21.5741 -2.28317 -0.234688 0.0204082 -0.0116697 0.0131203 0 0 0
10360 5 18.7838 -3.47561 -23.9163 -0.00913622 0.00321033 -0.0101647 0 0 1
2091 5 -11.5771 -0.244047 -6.34961 -0.00280162 0.0133672 0.0218245 0 0 0
622 5 -23.4105 -23.4476 -21.7457 -0.0161444 0.00124787 0.0134188 0 0 0
6156 5 -23.6202 -0.222557 -3.3193 0.0331864 -0.010839 -0.0366693 0 0 0
10027 5 0.544365 -3.81718 -24.4495 -0.00138339 0.0408527 0.00898965 0 0 1
637 5 -19.9007 -23.2843 -22.1846 -0.0127631 -0.0466306 0.0258765 0 0 0
59 17 -10.9507 -19.934 -18.3233 0.000311895 0.00308479 -0.000434158 0 0 0
113 17 -13.0236 -15.8795 -24.339 -0.00326963 -0.00383547 -0.00228396 0 0 0
5227 5 1.18635 -12.4788 -0.0860487 -0.0222795 0.0173083 0.0215491 0 0 0
203 17 -15.5001 -20.4573 -23.1795 -0.00298823 0.00295895 -0.00151756 0 0 0
204 5 -15.9099 -20.7652 -22.346 -0.000869821 -0.00594913 -0.000967255 0 0 0
205 5 -16.2756 -20.4564 -23.7626 0.00911213 -0.00210427 -0.00361527 0 0 0
212 17 -13.5603 -17.6551 -20.0841 0.00618702 -0.000332674 -0.000957566 0 0 0
213 5 -13.6686 -16.7113 -20.3424 -0.0156767 0.0185114 -0.0237018 0 0 0
214 5 -12.8682 -17.9233 -20.7221 0.0138828 -0.0370968 -0.00554659 0 0 0
218 17 -12.9469 -18.1814 -17.4612 0.00478924 0.00435281 -0.000956982 0 0 0
219 5 -13.1889 -17.8324 -18.344 0.0253106 -0.000905331 -0.00322766 0 0 0
220 5 -12.3045 -18.865 -17.7408 0.0140993 -0.010438 0.0161596 0 0 0
236 17 -15.1445 -20.9077 -17.2089 0.0027927 -0.00414654 -0.00349805 0 0 0
237 5 -16.0763 -20.817 -16.9184 -0.00539791 -0.0184748 0.00839054 0 0 0
243 5 -18.0198 -18.428 -21.5257 -0.0133483 0.0345345 -0.00872947 0 0 0
272 17 -12.8714 -20.5624 -22.3735 0.005164 0.00423162 0.00469279 0 0 0
273 5 -13.8117 -20.472 -22.6535 0.00941252 0.0247658 -0.00120187 0 0 0
274 5 -12.5962 -19.6277 -22.2799 -0.00139027 0.00601474 -0.00042551 0 0 0
278 17 -11.5781 -18.1378 -21.9944 -0.00227591 0.00112483 -0.00441755 0 0 0
280 5 -11.3654 -17.19 -22.1161 -0.0332422 -0.00120448 -0.0124724 0 0 0
356 17 -11.8173 -21.8648 -20.1443 -0.00131735 -0.00111265 -0.000341142 0 0 0
357 5 -12.1437 -21.4269 -20.9617 0.0140927 -0.00199523 -0.00873378 0 0 0
358 5 -11.5373 -21.0984 -19.5983 -0.0030442 -0.0101704 -0.00985431 0 0 0
362 17 -15.7427 -19.1071 -19.2623 -0.00062244 -0.00262814 0.00140423 0 0 0
363 5 -14.9793 -18.5694 -19.5719 -0.0173828 -0.00873642 -0.00393179 0 0 0
364 5 -15.3482 -19.5776 -18.4968 -0.006689 0.0123011 0.00639421 0 0 0
368 17 -13.9654 -22.9087 -18.7145 -0.00487513 0.00711493 -0.00365101 0 0 0
369 5 -14.2912 -22.1246 -18.2215 -0.023386 0.000947473 0.0259663 0 0 0
370 5 -13.2712 -22.5122 -19.2835 0.029004 -0.0153626 -0.0130891 0 0 0
437 17 -15.8062 -16.2672 -24.4288 0.0012444 -0.00326351 0.00220549 0 0 0
439 5 -14.8863 -16.0266 -24.1967 -0.0123143 -0.0214304 -0.0209488 0 0 0
623 17 -16.7285 -23.3079 -19.128 0.000237511 -0.00438523 0.00618103 0 0 0
624 5 -15.7956 -23.4091 -18.8522 -0.000749735 0.00418483 0.00634446 0 0 0
625 5 -17.0602 -24.2311 -19.0864 0.0241858 0.00408082 -0.0108675 0 0 0
627 5 -11.0315 -22.4952 -16.0403 0.00614185 0.0104481 -0.0204708 0 0 0
628 5 -11.5061 -23.9041 -16.4019 0.0117968 -0.00808063 -0.0104584 0 0 0
630 5 -10.2861 -22.9187 -20.3898 0.0201866 -0.0161531 0.00575471 0 0 0
638 17 -16.6767 -21.1406 -20.8108 0.00896208 -0.0060302 -0.000850582 0 0 0
639 5 -16.5802 -21.9091 -20.207 -0.00183497 0.0166895 0.00317697 0 0 0
640 5 -16.3543 -20.4098 -20.2371 0.00812557 0.00808812 0.0143516 0 0 0
3324 5 -12.8327 -24.096 -18.0652 0.021489 -0.000595388 -0.0161247 0 1 0
8697 5 -12.337 -20.933 -24.109 0.00382481 0.00604344 -0.00699681 0 0 1
60 5 -10.724 -20.2364 -17.4145 -0.0227121 -0.0138275 -0.000816944 0 0 0
61 5 -10.1007 -19.5209 -18.5826 0.00183195 -0.00145516 0.00427829 0 0 0
152 17 -7.84102 -24.4051 -22.5167 -5.63504e-05 0.000355911 0.00176896 0 0 0
153 5 -8.37139 -23.9152 -21.8527 -0.0142254 -0.020337 0.00224659 0 0 0
154 5 -7.22088 -23.7086 -22.8223 0.0257951 -0.00937188 0.000872043 0 0 0
279 5 -10.7293 -18.5444 -22.267 0.0239788 -0.000647296 0.00234902 0 0 0
296 17 -7.21349 -18.175 -21.306 0.00252711 0.00192272 -0.000515752 0 0 0
297 5 -7.92333 -18.5127 -21.8956 0.0372785 0.0058192 -0.039814 0 0 0
298 5 -7.19312 -17.2345 -21.5998 0.00449675 0.0177606 -0.0192129 0 0 0
512 17 -9.16595 -19.1358 -23.033 -0.00455702 0.00312376 0.00365816 0 0 0
513 5 -9.06219 -18.8092 -23.9428 -0.0176872 -0.0154649 0.00253417 0 0 0
514 5 -9.02501 -20.0926 -23.1944 0.0118667 0.0379719 0.0140763 0 0 0
515 17 -8.46911 -16.4012 -17.9699 0.00556761 0.00122266 0.00426578 0 0 0
516 5 -8.4912 -17.355 -18.1911 0.00641949 0.00999062 0.0161633 0 0 0
517 5 -8.94005 -16.3977 -17.1076 -0.00232606 -0.0132695 -0.00203932 0 0 0
527 17 -8.29335 -21.507 -24.2301 0.00440636 -0.000781111 0.00131336 0 0 0
528 5 -7.43079 -21.8699 -23.9392 -0.00776694 0.00570263 0.011374 0 0 0
12 2 -0.7294 -1.32184 -1.89682 -0.00356954 0.0260779 0.0107958 0 0 0
530 17 -8.3841 -19.044 -18.9201 -0.0125417 0.000787616 0.00697752 0 0 0
531 5 -8.02614 -19.9564 -18.8638 0.00928239 -0.00945857 0.000860227 0 0 0
532 5 -7.95429 -18.7308 -19.7401 0.00984073 -0.0302744 0.0102881 0 0 0
545 17 -7.66677 -21.7388 -18.9815 4.19381e-05 -0.00160652 -0.000276362 0 0 0
546 5 -7.78208 -22.1463 -18.0967 0.0463367 -0.0317381 -0.0170356 0 0 0
547 5 -8.27657 -22.2849 -19.5225 0.00396223 0.0177625 0.00481673 0 0 0
557 17 -5.92662 -22.5125 -23.2933 -0.00127316 0.000727262 -0.00498324 0 0 0
558 5 -5.12953 -22.5282 -23.8643 -0.000324819 -0.0170657 0.0167892 0 0 0
559 5 -5.68313 -21.797 -22.6692 -0.000660244 -0.0292179 -0.0246923 0 0 0
614 17 -7.593 -23.0534 -16.5344 0.00272812 0.00225447 -0.00227357 0 0 0
615 5 -7.19507 -23.9448 -16.6301 -0.00434609 0.00401702 0.0262073 0 0 0
616 5 -6.80517 -22.4867 -16.3639 0.00931156 0.0127813 0.0160072 0 0 0
629 17 -9.40722 -23.3529 -20.4155 0.00748721 -0.00265601 -0.00124859 0 0 0
631 5 -9.60004 -24.2103 -19.9814 -0.0323045 0.014198 0.00643082 0 0 0
674 17 -4.85334 -17.4533 -19.8486 0.00524076 -0.000951108 -0.00374352 0 0 0
675 5 -5.19949 -16.6306 -19.4432 -0.0279562 0.00208292 0.0137314 0 0 0
676 5 -5.61743 -17.731 -20.3813 -0.0114093 0.000801909 -0.00607091 0 0 0
860 17 -5.60204 -21.2169 -16.1624 0.0133246 -0.00136785 -0.00164016 0 0 0
862 5 -5.87241 -20.336 -15.8677 0.00275775 0.00369401 -0.0130212 0 0 0
863 17 -5.36854 -20.3635 -21.655 0.00521028 0.00684658 0.00134552 0 0 0
864 5 -4.8526 -19.7887 -22.2696 0.00473214 -0.0248369 0.0317471 0 0 0
865 5 -6.04875 -19.7173 -21.3909 0.0132934 -0.0272509 -0.0284551 0 0 0
1015 5 -4.83849 -18.5099 -24.3227 -0.0183642 0.00656245 0.0259239 0 0 0
1190 17 -5.14879 -22.5189 -19.9361 0.0015156 -0.00113671 0.00197762 0 0 0
1191 5 -5.94998 -22.2451 -19.444 -0.00105745 -0.000537893 0.00433984 0 0 0
1192 5 -5.10917 -21.7718 -20.5694 0.0132458 -0.0062678 -0.00331552 0 0 0
1252 5 -3.58774 -23.4299 -20.1686 0.002082 0.0110406 0.00580045 0 0 0
3597 5 -5.37047 -24.4144 -19.5051 -0.014654 -0.0202717 0.00803869 0 1 0
690 5 0.743291 -19.0884 -17.0471 -0.020213 0.0101763 -0.00957943 0 0 0
691 5 0.743636 -20.5698 -16.7724 -0.00146886 0.00837741 0.0213889 0 0 0
697 5 -3.07654 -18.2274 -16.9425 0.0165935 0.0109143 -0.0206977 0 0 0
700 5 0.732876 -16.8413 -17.1189 -0.014003 -0.0133472 0.0192059 0 0 0
842 17 -0.133819 -18.0186 -18.1338 -0.00413385 0.00357925 -0.00654539 0 0 0
843 5 -1.08899 -18.1957 -18.2727 0.00374851 -0.0105356 0.0262376 0 0 0
844 5 0.206288 -18.2354 -19.032 0.00261519 0.000880151 -0.0135611 0 0 0
857 17 -1.28437 -20.8455 -24.2287 0.00227614 -0.00199708 -0.000458032 0 0 0
858 5 -0.802941 -20.814 -23.3757 -0.0116854 -0.00842289 -0.020969 0 0 0
869 17 3.63301 -20.5241 -17.2977 0.00233202 -0.00406966 -0.00311485 0 0 0
870 5 2.85876 -20.252 -16.7644 -0.0108615 -0.0187727 -0.00709359 0 0 0
872 17 -2.76317 -18.6708 -18.6418 -0.00601445 0.00140007 -0.00210415 0 0 0
873 5 -3.48828 -18.1731 -19.0953 -0.0012611 -0.00643152 0.0111225 0 0 0
874 5 -2.91921 -19.5553 -18.9949 -0.00711664 1.25729e-05 -0.0107654 0 0 0
875 17 0.842385 -18.7193 -20.5662 0.00402614 0.00317515 0.00117143 0 0 0
876 5 1.78885 -18.8458 -20.3326 -0.0102806 0.0233848 0.0256304 0 0 0
877 5 0.906806 -18.2452 -21.4243 0.00279526 0.010396 0.00783081 0 0 0
881 17 0.95193 -17.6275 -23.0724 -0.00315034 -0.00224187 0.00237848 0 0 0
882 5 0.341785 -17.8859 -23.7895 -0.00579493 -0.00806842 0.00631693 0 0 0
883 5 1.82373 -17.7906 -23.4991 0.0309278 0.00549834 -0.00834023 0 0 0
893 17 0.173091 -21.9683 -17.509 0.00374615 0.00271931 0.00154963 0 0 0
894 5 -0.564261 -22.5941 -17.6399 0.0120824 -0.0305445 0.00442368 0 0 0
895 5 0.924295 -22.5961 -17.5103 0.00984212 -0.00375932 0.00295126 0 0 0
992 17 3.39602 -19.3342 -19.753 -0.0045675 0.000491973 -0.00248678 0 0 0
994 5 3.49112 -19.6803 -18.8373 -0.0404674 0.0247451 -0.00818127 0 0 0
1004 17 0.267738 -21.0767 -21.9204 0.00462248 -0.0005475 -0.000689964 0 0 0
1005 5 0.262992 -20.2921 -21.3358 0.00395805 0.00513887 -0.000117534 0 0 0
1006 5 1.21382 -21.3277 -21.8492 0.00924374 -0.0129267 -0.0133351 0 0 0
1013 17 -4.44571 -18.5534 -23.4354 0.00577812 -0.000230688 0.00734284 0 0 0
1014 5 -4.31055 -17.6031 -23.2422 -0.00676732 0.0160739 -0.0219833 0 0 0
1064 17 3.39488 -17.9671 -24.2135 -0.0032416 0.000891081 -0.00152938 0 0 0
1066 5 4.09666 -17.3405 -23.9329 -0.000986436 -0.0227799 -0.00823616 0 0 0
1247 17 -1.4752 -24.1456 -17.8039 0.00230412 0.00545218 -0.00596126 0 0 0
1248 5 -2.05165 -24.1966 -18.596 0.0369369 0.00363178 -0.00381774 0 0 0
6313 5 -23.2118 -0.555194 -5.65745 -0.00797368 0.0100707 0.000620019 0 0 0
1250 17 -2.8578 -24.0846 -20.1987 0.00492122 0.00149316 0.0014659 0 0 0
1251 5 -2.27618 -23.7335 -20.9055 0.00408577 -0.00363924 0.0025762 0 0 0
1253 17 2.14207 -23.8561 -17.5016 -0.00274451 0.00223019 -0.00135851 0 0 0
1254 5 2.87132 -23.7132 -18.1332 0.0189024 -0.00726726 0.00657968 0 0 0
2465 17 11.3603 -0.60194 -7.74053 -0.00386213 0.00323988 -0.00086789 0 0 0
1265 17 -0.867381 -23.5875 -22.088 -0.00627517 0.00287746 0.00298615 0 0 0
1266 5 -0.630496 -23.6723 -23.0346 0.00102216 -0.00405922 -0.0303249 0 0 0
1267 5 -0.491098 -22.6994 -21.9113 0.0128384 -0.00789746 -0.0182307 0 0 0
1268 17 2.95595 -21.4865 -21.3586 -0.0041465 0.00217978 0.00252172 0 0 0
1269 5 3.33265 -22.1906 -20.8069 -0.00213588 -0.00181766 0.0241897 0 0 0
1270 5 3.12955 -20.7039 -20.7899 0.0284873 -0.0129187 -0.000287062 0 0 0
692 17 8.17705 -19.7464 -17.9076 -0.00428066 4.55936e-05 0.00159441 0 0 0
693 5 8.61973 -19.9902 -17.0617 -0.0164146 0.0062363 0.0281873 0 0 0
694 5 8.95188 -19.3839 -18.3854 0.0431314 -0.015885 -0.0036194 0 0 0
746 17 5.55671 -16.2348 -23.9802 0.00147223 -0.00223942 0.000429542 0 0 0
5150 17 -1.97109 -17.2493 -1.08624 -0.00331942 -0.0011215 0.00893402 0 0 0
1157 17 10.3674 -21.3787 -24.4337 -0.00224655 0.000256754 0.000410833 0 0 0
8374 5 -24.2891 -24.1191 -1.66353 0.000127127 0.0226135 0.00226908 1 1 0
836 17 4.4936 -20.4078 -23.4553 0.00595296 -0.000789177 -0.000565742 0 0 0
837 5 3.83122 -20.8979 -22.9275 -0.0140857 -0.0170624 0.015267 0 0 0
838 5 3.98894 -19.608 -23.7118 -0.00708675 0.00320857 0.0252089 0 0 0
845 17 5.64287 -17.7928 -19.8519 0.00220828 0.00560662 0.00479569 0 0 0
846 5 5.46939 -16.8461 -20.0562 -0.0119479 0.0148748 -0.00515633 0 0 0
847 5 6.38631 -17.9695 -20.4661 -0.0191607 0.0247861 0.0292485 0 0 0
852 5 5.9213 -17.8443 -18.1155 -0.00905566 -0.00707846 0.0167265 0 0 0
853 5 6.78887 -18.7298 -17.2976 0.0131616 0.0150132 0.014311 0 0 0
905 17 6.69297 -20.5921 -21.8151 0.00268061 0.000866131 -0.00294862 0 0 0
906 5 5.86549 -20.5148 -22.3305 -0.00607753 0.0117768 -0.0142964 0 0 0
907 5 7.0001 -19.6616 -21.7959 -0.00154743 -0.0287463 -0.0313607 0 0 0
911 17 7.63843 -18.0436 -21.7557 0.00327299 0.00459654 0.0054209 0 0 0
912 5 8.47406 -18.3404 -22.1776 0.0177646 -0.0136397 -0.0139309 0 0 0
913 5 7.68726 -17.0778 -21.9149 0.000387728 0.0329349 0.00615249 0 0 0
986 17 6.8055 -21.6866 -19.3394 0.00662699 0.00166621 -0.00728555 0 0 0
987 5 6.82478 -21.3205 -20.2543 0.000546355 -0.0160152 -0.01706 0 0 0
988 5 7.21748 -20.9518 -18.8318 -0.029199 -0.0173455 0.0069072 0 0 0
993 5 4.19596 -18.7639 -19.8083 -0.00756541 0.0191642 -0.00787107 0 0 0
998 17 4.32137 -22.7081 -18.8902 0.00343133 0.00378308 -0.00260865 0 0 0
999 5 4.02017 -21.968 -18.3205 0.00488944 -0.0136764 -0.0111358 0 0 0
1000 5 5.22675 -22.3844 -19.1068 0.0179808 -0.00528354 0.0173839 0 0 0
1144 5 9.90538 -19.9513 -23.4167 -0.0314033 -0.00500433 0.0438743 0 0 0
1145 17 10.7799 -16.3737 -18.0903 -0.00252292 -0.00262267 -0.00447076 0 0 0
1146 5 10.6691 -17.3156 -18.3452 0.027076 0.0106283 0.0195905 0 0 0
1147 5 11.1364 -16.4763 -17.1821 -0.0179737 0.00529063 0.0154421 0 0 0
9490 5 14.1827 -15.732 -24.1086 0.00164083 0.00796173 0.012191 0 0 1
3215 17 18.1872 -0.0934508 -6.05009 -0.00289015 0.00581744 -0.00540936 0 0 0
1160 17 10.6225 -18.9983 -18.972 -0.00227193 0.000518266 0.00798087 0 0 0
1177 5 10.381 -22.2547 -18.6383 -0.0151153 0.0155692 -0.027362 0 0 0
1257 5 8.08121 -23.2673 -17.0126 -0.0165835 0.00732869 0.0172815 0 0 0
1258 5 6.94556 -24.1715 -16.6397 -0.00159162 -0.00479494 -0.0273108 0 0 0
1259 17 8.93698 -23.2741 -18.6469 -0.000198942 -0.00552085 -0.00254533 0 0 0
1260 5 8.16387 -22.813 -19.0362 -0.00701422 -0.0119337 0.0137315 0 0 0
1261 5 8.84808 -24.1697 -19.0314 -0.00858019 -0.00879655 -0.00911029 0 0 0
3702 5 5.31939 -24.2284 -18.3261 0.00461079 0.0177185 -0.0047661 0 1 0
9072 5 7.38163 -20.8671 -23.9524 0.00379562 -0.0288087 0.00432309 0 0 1
787 5 11.8276 -24.0853 -23.2888 -0.0274041 0.0290176 0.00459183 0 0 0
929 17 11.7873 -18.293 -21.3781 0.00125328 -0.00626223 -0.00588465 0 0 0
930 5 11.0529 -18.6003 -21.9538 0.000527105 0.00423007 0.0194915 0 0 0
931 5 11.8466 -17.368 -21.7253 0.0105956 0.0203858 0.00921757 0 0 0
1142 17 9.81051 -19.0107 -23.1498 -0.00304787 0.00261818 0.00123812 0 0 0
1143 5 9.93082 -18.5839 -24.0145 0.000751269 -0.0233648 -0.00127179 0 0 0
1158 5 11.1662 -21.8456 -24.1045 -0.0315365 0.00209022 0.00238173 0 0 0
1161 5 10.9183 -19.9246 -18.8294 -0.000595072 0.0101446 -0.0113947 0 0 0
1162 5 11.0629 -18.7889 -19.8202 0.0302616 0.0254576 0.0364844 0 0 0
1175 17 11.1886 -21.6943 -18.6131 0.00595858 0.00116964 -2.85072e-05 0 0 0
1176 5 11.4824 -21.8531 -17.689 0.00725753 0.0126386 -0.0103265 0 0 0
1187 17 12.6642 -22.5273 -23.4808 -0.00675269 -0.00147772 -0.00229653 0 0 0
1188 5 13.4748 -22.4031 -24.0215 0.00185473 0.00240376 0.003092 0 0 0
1189 5 12.8656 -21.9009 -22.7541 -0.00452104 -0.0046506 -0.0111909 0 0 0
1244 17 12.1721 -22.3074 -16.1312 -0.00149809 0.0111745 0.00392667 0 0 0
1245 5 12.8396 -22.9969 -16.0441 0.0179329 -0.00996942 0.0225112 0 0 0
1246 5 12.7142 -21.5085 -15.9213 0.00845761 0.0167575 0.0133708 0 0 0
1298 17 14.3736 -17.2665 -20.3691 -0.00373452 -0.00431544 0.00218394 0 0 0
1299 5 13.9517 -16.4992 -19.9255 -0.00605935 0.015653 -0.000203972 0 0 0
1300 5 13.5897 -17.767 -20.6518 -0.000989489 -0.00318808 0.00654337 0 0 0
1312 5 15.2968 -17.8252 -16.8382 0.00366761 0.011941 -0.00923245 0 0 0
1406 17 13.9636 -20.3269 -15.5996 -0.00311862 0.0040521 -0.00354523 0 0 0
1408 5 14.1524 -19.3866 -15.7801 0.00506309 -0.0318922 -0.0307823 0 0 0
1409 17 13.3702 -20.5462 -21.7269 0.00483527 0.000271587 0.00479929 0 0 0
1410 5 13.9917 -20.064 -22.3216 0.0310548 -0.00819226 -0.0116328 0 0 0
1411 5 12.781 -19.8014 -21.4974 0.00706882 0.000304058 -0.00475341 0 0 0
1415 17 16.2706 -18.1316 -18.3061 0.00173157 0.00421424 -0.00133426 0 0 0
1416 5 15.7499 -18.0119 -19.1251 0.00869612 0.0245381 0.00476326 0 0 0
1417 5 16.624 -19.0412 -18.4098 0.00780591 -0.0308419 -0.0045887 0 0 0
1431 5 17.1517 -21.4679 -17.9687 0.004495 -0.0187241 0.022405 0 0 0
1505 17 14.5459 -18.8533 -23.4833 0.00350044 -0.00211214 0.00189664 0 0 0
1506 5 14.9463 -17.976 -23.3329 -0.0337622 0.0117711 0.0200397 0 0 0
1507 5 14.0608 -18.715 -24.3133 -0.0165277 0.00698557 0.019784 0 0 0
1595 17 13.2004 -22.8036 -20.1694 -0.00226386 0.00161289 0.00238166 0 0 0
1596 5 12.5051 -22.4465 -19.5765 -0.017862 0.00616811 0.005754 0 0 0
1597 5 13.3686 -22.0019 -20.7104 -0.00513603 -0.00797843 0.00896025 0 0 0
1631 17 16.785 -23.2421 -17.7641 0.000769784 0.00287261 0.00222365 0 0 0
1632 5 16.2208 -23.6509 -18.4511 0.0110768 0.0103432 0.00649287 0 0 0
7562 17 21.2483 -2.98693 -0.847744 -0.00423337 0.0029668 -0.00416505 0 0 0
1634 17 15.5297 -24.2823 -20.0226 0.003264 -0.00869221 0.0018081 0 0 0
1635 5 16.1161 -23.8991 -20.7088 -0.0364983 0.0142166 -0.0014215 0 0 0
1636 5 14.7259 -23.7271 -20.108 0.0211871 0.00754247 0.00327874 0 0 0
1643 17 17.5651 -23.4572 -21.7533 -0.00475877 -0.00305799 -0.00304696 0 0 0
1644 5 17.8888 -23.5881 -22.6675 0.00691968 0.00452652 -0.00488185 0 0 0
1657 5 16.7738 -24.5011 -6.57236 -0.021961 -0.00144722 0.00669739 0 0 0
561 5 24.4342 -21.5462 -21.7914 -0.00410098 -0.00510422 -0.010831 -1 0 0
1308 5 19.1716 -18.7193 -16.5154 -0.013838 -0.0106894 0.0026359 0 0 0
1309 5 18.6813 -20.1145 -16.6694 0.014022 0.0138924 -0.00025536 0 0 0
1315 5 20.0229 -16.3308 -16.926 -0.0122628 -0.0192605 0.0143221 0 0 0
1337 17 24.217 -15.42 -23.4918 -0.0078662 -0.00593053 7.81443e-05 0 0 0
1339 5 -23.831 -15.3494 -23.7106 0.00683373 -0.0303566 -0.00958243 1 0 0
1388 17 23.5194 -20.7836 -23.1474 -0.00444669 -0.00410314 -0.000865532 0 0 0
1389 5 22.66 -20.8358 -22.6806 0.0190159 0.0155743 -0.00178766 0 0 0
1390 5 23.2658 -21.0971 -24.0422 0.00653428 -0.00397105 -0.0235657 0 0 0
1394 17 18.9094 -17.4504 -17.7738 0.00147496 -0.00448154 -0.0106548 0 0 0
1395 5 17.9388 -17.5106 -17.8819 0.00709753 -0.000639063 0.0359067 0 0 0
1396 5 19.1847 -17.8016 -18.6512 -0.0158047 0.000721264 0.0169588 0 0 0
1403 17 17.3056 -20.7056 -23.9901 0.00104908 -0.00410427 -0.000569151 0 0 0
1404 5 17.7148 -20.6885 -23.0976 0.0103108 -0.0050189 0.00206781 0 0 0
1405 5 17.4522 -19.7843 -24.2792 -0.0248888 0.0109756 -0.000759261 0 0 0
1412 17 22.003 -19.3559 -16.658 0.00438718 0.00217803 0.00118342 0 0 0
1418 17 19.6005 -18.5324 -20.1885 0.00425621 -0.00035901 0.00152771 0 0 0
1419 5 20.5529 -18.6783 -20.0052 -0.0114487 0.0267725 -0.00248938 0 0 0
1420 5 19.626 -18.1154 -21.0751 0.00971988 -0.0214347 0.0291725 0 0 0
1421 17 19.475 -17.3534 -22.6781 0.000240589 0.0049651 -0.00916549 0 0 0
1422 5 18.9067 -17.6984 -23.392 -0.0108271 -0.000682702 -0.0102045 0 0 0
1423 5 20.3069 -17.1799 -23.1736 0.00117588 -0.0181297 0.0121845 0 0 0
1430 17 17.6759 -20.6553 -18.1226 -0.0047186 -0.00459534 0.0037262 0 0 0
1432 5 18.5002 -21.0806 -18.4525 -0.0158394 0.000131643 0.0135881 0 0 0
1487 17 22.185 -19.1473 -19.4356 0.00180075 0.00372018 0.00791702 0 0 0
1488 5 23.1554 -19.269 -19.4975 -0.0190716 0.00093281 -0.0246598 0 0 0
1489 5 22.0797 -19.1506 -18.461 -0.00488034 -0.0199927 0.0187342 0 0 0
1493 17 22.5913 -22.4211 -19.1868 0.000945677 0.00049922 0.00306469 0 0 0
1494 5 22.8863 -22.2273 -18.2703 -0.0120481 0.00324707 -0.0188522 0 0 0
1495 5 23.4406 -22.4543 -19.6626 0.00422238 0.00182863 0.00963661 0 0 0
1499 17 18.6907 -20.8715 -21.5962 0.00348651 -0.00439712 -0.0039968 0 0 0
1500 5 18.6821 -20.1585 -20.9315 0.00470641 0.0129626 0.0216297 0 0 0
1501 5 19.6566 -21.0452 -21.6222 -0.014658 -0.00297808 -0.0141932 0 0 0
1544 17 21.7717 -16.5886 -24.0022 0.00667743 -0.00461829 -0.000858135 0 0 0
1546 5 22.6892 -16.2961 -23.8075 0.00123277 0.0122429 0.00413155 0 0 0
1637 17 19.8565 -22.2679 -18.5675 -0.000880698 -0.00227118 -0.00188133 0 0 0
1638 5 20.81 -22.3388 -18.7629 0.00423819 -0.00323911 -0.0229203 0 0 0
1639 5 19.6421 -23.1952 -18.3435 0.0307103 -0.00344469 0.00392802 0 0 0
1645 5 17.9254 -22.5636 -21.5746 -0.00573531 0.00863866 -0.0138544 0 0 0
1646 17 21.4438 -21.0321 -21.303 0.00868592 -0.00569093 0.00511262 0 0 0
1647 5 21.6993 -21.7618 -20.7053 0.0178071 -0.0265608 -0.00365582 0 0 0
1648 5 21.6675 -20.279 -20.7177 -0.0230706 -0.00854635 -0.0218534 0 0 0
43 5 -21.7785 -14.2427 -16.9074 -0.000792646 -0.0114361 0.00310559 0 0 0
89 17 -22.3967 -12.3907 -20.4718 -0.00222683 0.00226418 0.00429479 0 0 0
90 5 -23.0404 -11.9072 -21.0259 -0.00517315 -0.00218801 -0.0264088 0 0 0
91 5 -22.1877 -11.6658 -19.8391 -0.00336887 0.00850081 -0.00383767 0 0 0
125 17 -18.0433 -13.9332 -18.4772 -0.000436952 -0.00119535 -0.00291715 0 0 0
126 5 -18.1821 -14.4617 -19.2895 0.0273778 0.00548184 -0.00314281 0 0 0
127 5 -17.6974 -14.6016 -17.8488 -0.00141821 0.0235312 0.0205788 0 0 0
155 17 -18.5079 -15.1954 -20.9472 -0.00021448 0.00155066 -0.00261097 0 0 0
156 5 -19.3164 -14.7611 -21.2968 -0.00486675 0.00970416 -0.0245725 0 0 0
157 5 -18.702 -16.1421 -21.094 -0.0102014 -0.00272234 0.00466405 0 0 0
178 5 -21.4137 -7.34717 -17.2068 0.01767 -0.00277502 0.00458375 0 0 0
308 17 -17.5709 -9.70048 -18.5357 -0.00466838 0.00247617 -0.00612675 0 0 0
309 5 -17.8129 -8.76004 -18.64 -0.00160391 -0.0228075 0.0103015 0 0 0
310 5 -17.834 -9.85371 -17.6076 0.00569765 0.00515213 -0.00227015 0 0 0
311 17 -22.1538 -14.9559 -24.0048 -0.00100336 -0.00130714 0.00248787 0 0 0
312 5 -21.5536 -14.6139 -23.3063 -0.0185169 0.011926 -0.00435059 0 0 0
2523 5 1.83606 -0.0665716 -20.0531 0.0085437 0.00453706 0.00754776 0 0 0
316 5 -17.3252 -12.5721 -19.4126 -0.00990733 -0.0156256 0.00453429 0 0 0
350 17 -20.6005 -13.7347 -22.058 -0.00558919 0.00359059 0.000641369 0 0 0
351 5 -21.1881 -13.3173 -21.3905 0.00885371 -0.00915616 0.0081902 0 0 0
352 5 -20.2082 -12.9307 -22.4625 0.00740451 -0.0255995 -0.00375064 0 0 0
383 17 -19.6511 -11.4216 -23.2502 -0.00132937 0.00213015 -0.00180976 0 0 0
384 5 -19.0039 -10.879 -22.7473 -0.0232158 -0.0229607 -0.00961309 0 0 0
385 5 -19.0806 -11.7235 -23.9856 -0.0162544 -0.0183119 -0.0213345 0 0 0
395 17 -22.3795 -9.93185 -19.201 -0.00439274 0.00459797 0.00126592 0 0 0
396 5 -22.5122 -9.51671 -18.3264 -0.00737995 0.00247007 -0.00641535 0 0 0
397 5 -22.4645 -9.1408 -19.7656 -0.00372188 0.020844 -0.0246593 0 0 0
6549 5 -21.764 -4.18691 -0.152246 0.0162831 -0.0117681 0.010717 0 0 0
417 5 -17.5284 -13.1645 -24.3168 0.013049 -0.0110261 -0.0304986 0 0 0
3221 17 21.7504 -0.324655 -7.49605 0.00305436 -0.00164261 -0.00310023 0 0 0
431 17 -16.9552 -14.1968 -23.0262 -0.000313196 -0.0014355 0.00353736 0 0 0
432 5 -17.4351 -14.5626 -22.2533 -0.00311131 -0.00423359 0.0243172 0 0 0
482 17 -22.0297 -9.98776 -23.4625 -0.00137294 0.00617038 -0.00518276 0 0 0
483 5 -21.2148 -10.5346 -23.4057 0.00872695 0.00578451 -0.0217749 0 0 0
484 5 -22.6322 -10.4611 -22.8613 -0.000378242 -0.017566 0.0126939 0 0 0
1336 5 -23.3476 -13.9999 -20.6613 -0.0105001 -0.00687845 -0.00531382 1 0 0
23 17 -12.1145 -14.2377 -18.6328 -0.000202945 0.00965927 -0.00228226 0 0 0
24 5 -12.4088 -13.3055 -18.5274 -0.00444561 0.00256915 -0.00370259 0 0 0
25 5 -12.8037 -14.5719 -19.2315 -0.00979482 0.00733137 0.0016255 0 0 0
74 17 -12.9997 -11.6727 -18.9252 -0.00369134 0.00128295 0.00288461 0 0 0
75 5 -12.8984 -11.3365 -19.8283 0.000657212 -0.0121688 0.0063969 0 0 0
76 5 -13.4029 -10.9083 -18.471 0.0194252 -0.0038027 -0.0101489 0 0 0
101 17 -11.1926 -8.39855 -17.7466 -0.00644063 -0.00555031 -0.000327212 0 0 0
102 5 -10.6264 -9.20131 -17.8792 -0.00207354 -0.0147647 -0.0194498 0 0 0
110 17 -13.4871 -15.0622 -20.9378 0.001313 -0.00378666 -0.0015294 0 0 0
111 5 -14.045 -14.2878 -21.1711 0.000393482 0.00231682 0.0191298 0 0 0
112 5 -12.7562 -14.9758 -21.572 0.00180143 -0.0276474 0.00740603 0 0 0
114 5 -12.3003 -15.7718 -23.6971 -0.011259 0.0198658 -0.00250953 0 0 0
120 5 -10.6144 -14.6584 -19.322 0.00811498 -0.000905201 -0.00231689 0 0 0
140 17 -10.9635 -15.4593 -22.3221 -0.00319778 -0.00186863 -0.00399477 0 0 0
141 5 -10.5506 -15.2503 -21.4523 -0.000654412 0.00195777 -0.0155967 0 0 0
142 5 -10.2897 -15.0596 -22.9165 0.00591694 0.00182769 -0.0214046 0 0 0
146 17 -13.82 -9.23856 -17.7899 0.000915564 0.00573615 -0.00352107 0 0 0
147 5 -12.887 -8.94306 -17.7717 0.0228094 -0.0136868 0.0268921 0 0 0
148 5 -14.2349 -8.47969 -18.2443 -0.03078 0.00355338 0.00788594 0 0 0
266 17 -14.9975 -12.8667 -21.6308 -0.00709265 0.000345344 0.00423069 0 0 0
267 5 -15.6583 -13.2243 -22.2605 -0.0408831 0.00553646 -0.0134875 0 0 0
268 5 -15.6075 -12.4876 -20.9556 0.00697787 0.00957839 -0.0288489 0 0 0
284 17 -12.9482 -11.0787 -21.7542 0.00153242 0.000781183 -0.00146443 0 0 0
285 5 -13.5194 -10.2738 -21.6734 0.00264858 0.0129927 0.00196744 0 0 0
286 5 -13.6437 -11.7772 -21.7479 -0.0195664 0.0154843 -0.0114792 0 0 0
314 17 -16.917 -11.8744 -19.9675 -0.00252736 -0.00350206 0.00142157 0 0 0
315 5 -17.0734 -11.0907 -19.3872 0.010126 0.0254343 -0.00292135 0 0 0
328 5 -11.1726 -11.0814 -22.0942 0.00205764 0.00261533 -0.00707049 0 0 0
344 17 -16.5814 -9.43671 -24.449 -0.00115891 3.39417e-05 0.000477632 0 0 0
1633 5 17.5756 -23.8215 -17.8322 -0.0292341 -0.000255332 -0.00810939 0 0 0
346 5 -16.9229 -9.65427 -23.5548 -0.0105093 -0.00638212 0.0205924 0 0 0
347 17 -17.5895 -10.0868 -21.9692 0.00565935 0.00391186 -0.00438258 0 0 0
348 5 -17.3281 -10.7503 -21.2947 -0.0282153 0.00231313 -0.00101329 0 0 0
349 5 -17.3958 -9.25955 -21.4896 0.00327144 -0.0261045 -0.0120641 0 0 0
359 17 -14.4672 -8.86894 -21.7425 -0.00582381 0.000392892 0.00761717 0 0 0
360 5 -15.3005 -8.42372 -21.4945 -0.00935556 0.0468399 0.0244175 0 0 0
361 5 -13.9265 -8.11028 -22.0374 -0.00182233 -0.022635 0.00461268 0 0 0
2543 17 2.29713 -0.0177538 -12.979 0.000813863 -0.00353469 -0.0085361 0 0 0
3057 5 22.7294 -0.132399 -8.92401 0.00878922 -0.0161864 0.0141256 0 0 0
423 5 -12.9049 -10.5502 -23.5165 0.0208211 0.00688066 0.0239706 0 0 0
433 5 -16.5972 -15.0068 -23.4493 0.0417814 0.0022152 -0.00670035 0 0 0
104 17 -9.58121 -10.5361 -17.9768 -0.00103554 0.00121367 0.00344506 0 0 0
105 5 -9.3713 -11.2545 -18.592 -0.0145203 -0.000295824 0.00628592 0 0 0
106 5 -9.3302 -10.9208 -17.1084 0.0182297 -0.018073 0.0203501 0 0 0
119 17 -9.81328 -14.8375 -19.874 -0.0030538 0.00144722 -0.00636313 0 0 0
121 5 -9.28882 -15.377 -19.2455 0.0107785 -0.0267746 -0.0135799 0 0 0
158 17 -6.52212 -10.0924 -22.9847 -0.00193822 0.00393421 0.0030119 0 0 0
159 5 -6.42633 -9.11385 -23.0046 0.00889852 0.000637455 -0.00365483 0 0 0
160 5 -5.5896 -10.3789 -23.0775 -0.00314779 -0.0102703 0.0103797 0 0 0
200 17 -8.99779 -14.3914 -23.9316 0.00189671 0.00100588 -0.00161855 0 0 0
5642 17 -23.281 -7.3728 -0.652895 0.00252106 -0.000472393 0.00713003 1 0 0
202 5 -8.72549 -13.4533 -23.9939 0.0049834 0.0129996 -0.0258848 0 0 0
302 17 -7.70116 -9.66251 -20.5144 -0.0109283 0.00446632 -0.0100267 0 0 0
303 5 -8.18339 -10.4728 -20.2816 0.0146588 -0.0202085 0.00056138 0 0 0
304 5 -7.30998 -9.89892 -21.3762 0.00247787 0.0165494 -0.00532157 0 0 0
326 17 -10.227 -11.0076 -22.3494 5.55549e-05 -0.00326681 0.000522162 0 0 0
327 5 -9.79822 -11.3858 -21.5542 0.00169357 0.00845617 -0.00146469 0 0 0
338 17 -8.87305 -12.254 -20.2441 -0.00124812 0.00686067 -0.00565556 0 0 0
339 5 -9.33602 -13.1067 -20.1 -0.00541041 -0.00681394 -0.0221984 0 0 0
340 5 -7.9588 -12.6007 -20.3526 0.000288375 -0.0069172 0.0030164 0 0 0
410 17 -10.681 -8.56301 -23.6349 -0.000289717 -0.00234896 -0.00209126 0 0 0
411 5 -10.3108 -9.30637 -23.1172 -0.0187732 0.0193977 -0.035198 0 0 0
497 17 -6.42336 -13.4356 -20.487 -0.00121503 -0.000625933 0.00159475 0 0 0