14
# CELL(abcABC): 1000.00000  1000.00000  1000.00000    90.00000    90.00000    90.00000  Step:          87  Bead:       0 positions{angstrom}  cell{angstrom}
       C -6.32725e-01  6.50551e-01  2.18279e-02
       C  3.31365e-01 -3.06545e-01  7.11296e-01
       C -1.87436e+00 -4.08492e-02 -4.89899e-01
       C -8.61190e-01  1.98638e+00  7.43868e-01
       H -1.50959e+00  1.72754e+00  1.59170e+00
       H -1.46685e+00  2.64974e+00  1.13729e-01
       H  6.74362e-02  2.48508e+00  1.02957e+00
       H -1.74303e+00 -8.36349e-01 -1.18253e+00
       H -2.57985e+00  6.34713e-01 -1.01290e+00
       H -2.58551e+00 -4.77475e-01  2.68645e-01
       H  1.50646e+00  5.76428e-02  7.04786e-01
       H  4.10263e-01 -1.29706e+00  1.64147e-01
       H  1.37508e-02 -5.13038e-01  1.73832e+00
       H -9.28912e-02  7.65184e-01 -8.81151e-01
