4
# CELL(abcABC): 1000.00000  1000.00000  1000.00000    90.00000    90.00000    90.00000  Step:           0  Bead:       0 positions{angstrom}  cell{angstrom}
       O -3.15226e+00  1.06843e+00  3.44444e-01
       H -2.86105e+00  1.34490e-01  3.99088e-01
       H -2.84122e+00  1.47956e+00  1.17017e+00
       H -3.64657e+00  1.49684e+00 -3.51108e-01
4
# CELL(abcABC): 1000.00000  1000.00000  1000.00000    90.00000    90.00000    90.00000  Step:           1  Bead:       0 positions{angstrom}  cell{angstrom}
       O -3.15054e+00  1.06866e+00  3.43971e-01
       H -2.87116e+00  1.28199e-01  4.03042e-01
       H -2.84116e+00  1.47884e+00  1.17070e+00
       H -3.66388e+00  1.50023e+00 -3.48087e-01
4
# CELL(abcABC): 1000.00000  1000.00000  1000.00000    90.00000    90.00000    90.00000  Step:           2  Bead:       0 positions{angstrom}  cell{angstrom}
       O -3.14882e+00  1.06874e+00  3.43623e-01
       H -2.88233e+00  1.24255e-01  4.06925e-01
       H -2.83965e+00  1.47799e+00  1.17002e+00
       H -3.68139e+00  1.50371e+00 -3.45769e-01
4
# CELL(abcABC): 1000.00000  1000.00000  1000.00000    90.00000    90.00000    90.00000  Step:           3  Bead:       0 positions{angstrom}  cell{angstrom}
       O -3.14702e+00  1.06874e+00  3.43315e-01
       H -2.89380e+00  1.21305e-01  4.12042e-01
       H -2.83852e+00  1.47822e+00  1.16892e+00
       H -3.69974e+00  1.50644e+00 -3.44892e-01
4
# CELL(abcABC): 1000.00000  1000.00000  1000.00000    90.00000    90.00000    90.00000  Step:           4  Bead:       0 positions{angstrom}  cell{angstrom}
       O -3.14520e+00  1.06869e+00  3.43186e-01
       H -2.90625e+00  1.19227e-01  4.15559e-01
       H -2.83680e+00  1.47921e+00  1.16648e+00
       H -3.71788e+00  1.50829e+00 -3.43921e-01
4
# CELL(abcABC): 1000.00000  1000.00000  1000.00000    90.00000    90.00000    90.00000  Step:           5  Bead:       0 positions{angstrom}  cell{angstrom}
       O -3.14327e+00  1.06846e+00  3.43173e-01
       H -2.92011e+00  1.19021e-01  4.18356e-01
       H -2.83570e+00  1.48157e+00  1.16439e+00
       H -3.73566e+00  1.50989e+00 -3.44426e-01
4
# CELL(abcABC): 1000.00000  1000.00000  1000.00000    90.00000    90.00000    90.00000  Step:           6  Bead:       0 positions{angstrom}  cell{angstrom}
       O -3.14127e+00  1.06826e+00  3.43248e-01
       H -2.93431e+00  1.20486e-01  4.19850e-01
       H -2.83513e+00  1.48258e+00  1.16083e+00
       H -3.75392e+00  1.51052e+00 -3.43540e-01
4
# CELL(abcABC): 1000.00000  1000.00000  1000.00000    90.00000    90.00000    90.00000  Step:           7  Bead:       0 positions{angstrom}  cell{angstrom}
       O -3.13937e+00  1.06797e+00  3.43139e-01
       H -2.94724e+00  1.22762e-01  4.22384e-01
       H -2.83446e+00  1.48350e+00  1.15796e+00
       H -3.77174e+00  1.51193e+00 -3.41488e-01
4
# CELL(abcABC): 1000.00000  1000.00000  1000.00000    90.00000    90.00000    90.00000  Step:           8  Bead:       0 positions{angstrom}  cell{angstrom}
       O -3.13767e+00  1.06774e+00  3.43056e-01
       H -2.95907e+00  1.25200e-01  4.24117e-01
       H -2.83237e+00  1.48373e+00  1.15465e+00
       H -3.78902e+00  1.51294e+00 -3.38588e-01
4
# CELL(abcABC): 1000.00000  1000.00000  1000.00000    90.00000    90.00000    90.00000  Step:           9  Bead:       0 positions{angstrom}  cell{angstrom}
       O -3.13616e+00  1.06768e+00  3.42779e-01
       H -2.97046e+00  1.26303e-01  4.26921e-01
       H -2.82863e+00  1.48432e+00  1.15242e+00
       H -3.80535e+00  1.51218e+00 -3.34759e-01
4
# CELL(abcABC): 1000.00000  1000.00000  1000.00000    90.00000    90.00000    90.00000  Step:          10  Bead:       0 positions{angstrom}  cell{angstrom}
       O -3.13483e+00  1.06767e+00  3.42538e-01
       H -2.98105e+00  1.26469e-01  4.28961e-01
       H -2.82401e+00  1.48569e+00  1.15005e+00
       H -3.82052e+00  1.51084e+00 -3.30603e-01
4
# CELL(abcABC): 1000.00000  1000.00000  1000.00000    90.00000    90.00000    90.00000  Step:          11  Bead:       0 positions{angstrom}  cell{angstrom}
       O -3.13369e+00  1.06780e+00  3.42345e-01
       H -2.99050e+00  1.26224e-01  4.29732e-01
       H -2.81988e+00  1.48679e+00  1.14786e+00
       H -3.83320e+00  1.50791e+00 -3.26126e-01
4
# CELL(abcABC): 1000.00000  1000.00000  1000.00000    90.00000    90.00000    90.00000  Step:          12  Bead:       0 positions{angstrom}  cell{angstrom}
       O -3.13292e+00  1.06813e+00  3.42129e-01
       H -2.99757e+00  1.24611e-01  4.30246e-01
       H -2.81503e+00  1.48660e+00  1.14530e+00
       H -3.84322e+00  1.50442e+00 -3.20644e-01
4
# CELL(abcABC): 1000.00000  1000.00000  1000.00000    90.00000    90.00000    90.00000  Step:          13  Bead:       0 positions{angstrom}  cell{angstrom}
       O -3.13247e+00  1.06861e+00  3.41790e-01
       H -3.00337e+00  1.22607e-01  4.31103e-01
       H -2.80802e+00  1.48619e+00  1.14344e+00
       H -3.85153e+00  1.49916e+00 -3.14272e-01
4
# CELL(abcABC): 1000.00000  1000.00000  1000.00000    90.00000    90.00000    90.00000  Step:          14  Bead:       0 positions{angstrom}  cell{angstrom}
       O -3.13235e+00  1.06919e+00  3.41315e-01
       H -3.00660e+00  1.19674e-01  4.32521e-01
       H -2.79967e+00  1.48628e+00  1.14219e+00
       H -3.85855e+00  1.49286e+00 -3.06887e-01
4
# CELL(abcABC): 1000.00000  1000.00000  1000.00000    90.00000    90.00000    90.00000  Step:          15  Bead:       0 positions{angstrom}  cell{angstrom}
       O -3.13243e+00  1.06973e+00  3.40536e-01
       H -3.01065e+00  1.16085e-01  4.36261e-01
       H -2.79122e+00  1.48676e+00  1.14154e+00
       H -3.86179e+00  1.48737e+00 -2.97619e-01
4
# CELL(abcABC): 1000.00000  1000.00000  1000.00000    90.00000    90.00000    90.00000  Step:          16  Bead:       0 positions{angstrom}  cell{angstrom}
       O -3.13278e+00  1.07024e+00  3.39694e-01
       H -3.01266e+00  1.12543e-01  4.39803e-01
       H -2.78243e+00  1.48813e+00  1.14103e+00
       H -3.86303e+00  1.48155e+00 -2.87290e-01
4
# CELL(abcABC): 1000.00000  1000.00000  1000.00000    90.00000    90.00000    90.00000  Step:          17  Bead:       0 positions{angstrom}  cell{angstrom}
       O -3.13323e+00  1.07073e+00  3.38821e-01
       H -3.01309e+00  1.10434e-01  4.43641e-01
       H -2.77441e+00  1.48989e+00  1.13921e+00
       H -3.86337e+00  1.47410e+00 -2.75446e-01
4
# CELL(abcABC): 1000.00000  1000.00000  1000.00000    90.00000    90.00000    90.00000  Step:          18  Bead:       0 positions{angstrom}  cell{angstrom}
       O -3.13381e+00  1.07109e+00  3.37956e-01
       H -3.01381e+00  1.10516e-01  4.47640e-01
       H -2.76526e+00  1.49134e+00  1.13660e+00
       H -3.86263e+00  1.46679e+00 -2.63102e-01
4
# CELL(abcABC): 1000.00000  1000.00000  1000.00000    90.00000    90.00000    90.00000  Step:          19  Bead:       0 positions{angstrom}  cell{angstrom}
       O -3.13460e+00  1.07145e+00  3.37123e-01
       H -3.01344e+00  1.11944e-01  4.51980e-01
       H -2.75702e+00  1.49184e+00  1.13228e+00
       H -3.85863e+00  1.45914e+00 -2.49911e-01
4
# CELL(abcABC): 1000.00000  1000.00000  1000.00000    90.00000    90.00000    90.00000  Step:          20  Bead:       0 positions{angstrom}  cell{angstrom}
       O -3.13549e+00  1.07180e+00  3.36434e-01
       H -3.01239e+00  1.15246e-01  4.54665e-01
       H -2.74998e+00  1.49209e+00  1.12703e+00
       H -3.85268e+00  1.45001e+00 -2.36408e-01
4
# CELL(abcABC): 1000.00000  1000.00000  1000.00000    90.00000    90.00000    90.00000  Step:          21  Bead:       0 positions{angstrom}  cell{angstrom}
       O -3.13653e+00  1.07210e+00  3.35936e-01
       H -3.01118e+00  1.19193e-01  4.55781e-01
       H -2.74158e+00  1.49266e+00  1.12155e+00
       H -3.84581e+00  1.44076e+00 -2.24136e-01
4
# CELL(abcABC): 1000.00000  1000.00000  1000.00000    90.00000    90.00000    90.00000  Step:          22  Bead:       0 positions{angstrom}  cell{angstrom}
       O -3.13769e+00  1.07228e+00  3.35689e-01
       H -3.01057e+00  1.23031e-01  4.57361e-01
       H -2.73123e+00  1.49332e+00  1.11323e+00
       H -3.83831e+00  1.43342e+00 -2.13466e-01
4
# CELL(abcABC): 1000.00000  1000.00000  1000.00000    90.00000    90.00000    90.00000  Step:          23  Bead:       0 positions{angstrom}  cell{angstrom}
       O -3.13893e+00  1.07241e+00  3.35806e-01
       H -3.00932e+00  1.27797e-01  4.57860e-01
       H -2.72002e+00  1.49444e+00  1.10414e+00
       H -3.83106e+00  1.42552e+00 -2.06746e-01
4
# CELL(abcABC): 1000.00000  1000.00000  1000.00000    90.00000    90.00000    90.00000  Step:          24  Bead:       0 positions{angstrom}  cell{angstrom}
       O -3.14023e+00  1.07240e+00  3.36120e-01
       H -3.00702e+00  1.31476e-01  4.57766e-01
       H -2.70834e+00  1.49672e+00  1.09426e+00
       H -3.82447e+00  1.41960e+00 -2.01754e-01
4
# CELL(abcABC): 1000.00000  1000.00000  1000.00000    90.00000    90.00000    90.00000  Step:          25  Bead:       0 positions{angstrom}  cell{angstrom}
       O -3.14149e+00  1.07246e+00  3.36533e-01
       H -3.00431e+00  1.33700e-01  4.58002e-01
       H -2.69686e+00  1.49852e+00  1.08365e+00
       H -3.81865e+00  1.41466e+00 -1.97928e-01
4
# CELL(abcABC): 1000.00000  1000.00000  1000.00000    90.00000    90.00000    90.00000  Step:          26  Bead:       0 positions{angstrom}  cell{angstrom}
       O -3.14272e+00  1.07257e+00  3.37103e-01
       H -3.00119e+00  1.34628e-01  4.57090e-01
       H -2.68486e+00  1.50031e+00  1.07211e+00
       H -3.81424e+00  1.41021e+00 -1.94514e-01
4
# CELL(abcABC): 1000.00000  1000.00000  1000.00000    90.00000    90.00000    90.00000  Step:          27  Bead:       0 positions{angstrom}  cell{angstrom}
       O -3.14402e+00  1.07262e+00  3.37868e-01
       H -2.99786e+00  1.35852e-01  4.55088e-01
       H -2.67253e+00  1.50163e+00  1.05975e+00
       H -3.80929e+00  1.40689e+00 -1.92306e-01
4
# CELL(abcABC): 1000.00000  1000.00000  1000.00000    90.00000    90.00000    90.00000  Step:          28  Bead:       0 positions{angstrom}  cell{angstrom}
       O -3.14522e+00  1.07262e+00  3.38727e-01
       H -2.99521e+00  1.34818e-01  4.52534e-01
       H -2.65920e+00  1.50360e+00  1.04744e+00
       H -3.80616e+00  1.40603e+00 -1.91080e-01
4
# CELL(abcABC): 1000.00000  1000.00000  1000.00000    90.00000    90.00000    90.00000  Step:          29  Bead:       0 positions{angstrom}  cell{angstrom}
       O -3.14641e+00  1.07249e+00  3.39746e-01
       H -2.99154e+00  1.33548e-01  4.48166e-01
       H -2.64634e+00  1.50612e+00  1.03511e+00
       H -3.80386e+00  1.40684e+00 -1.90545e-01
4
# CELL(abcABC): 1000.00000  1000.00000  1000.00000    90.00000    90.00000    90.00000  Step:          30  Bead:       0 positions{angstrom}  cell{angstrom}
       O -3.14755e+00  1.07214e+00  3.40859e-01
       H -2.98719e+00  1.32913e-01  4.44181e-01
       H -2.63325e+00  1.50925e+00  1.02332e+00
       H -3.80318e+00  1.40989e+00 -1.92441e-01
4
# CELL(abcABC): 1000.00000  1000.00000  1000.00000    90.00000    90.00000    90.00000  Step:          31  Bead:       0 positions{angstrom}  cell{angstrom}
       O -3.14878e+00  1.07155e+00  3.42148e-01
       H -2.98100e+00  1.32157e-01  4.40064e-01
       H -2.61915e+00  1.51416e+00  1.01107e+00
       H -3.80396e+00  1.41505e+00 -1.96546e-01
4
# CELL(abcABC): 1000.00000  1000.00000  1000.00000    90.00000    90.00000    90.00000  Step:          32  Bead:       0 positions{angstrom}  cell{angstrom}
       O -3.14994e+00  1.07094e+00  3.43366e-01
       H -2.97547e+00  1.29324e-01  4.36299e-01
       H -2.60426e+00  1.52088e+00  1.00012e+00
       H -3.80596e+00  1.42085e+00 -2.01165e-01
4
# CELL(abcABC): 1000.00000  1000.00000  1000.00000    90.00000    90.00000    90.00000  Step:          33  Bead:       0 positions{angstrom}  cell{angstrom}
       O -3.15102e+00  1.07036e+00  3.44585e-01
       H -2.97033e+00  1.25869e-01  4.33555e-01
       H -2.58910e+00  1.52687e+00  9.89468e-01
       H -3.80904e+00  1.42759e+00 -2.07114e-01
4
# CELL(abcABC): 1000.00000  1000.00000  1000.00000    90.00000    90.00000    90.00000  Step:          34  Bead:       0 positions{angstrom}  cell{angstrom}
       O -3.15190e+00  1.06972e+00  3.46015e-01
       H -2.96472e+00  1.22631e-01  4.30445e-01
       H -2.57621e+00  1.53228e+00  9.78661e-01
       H -3.81366e+00  1.43543e+00 -2.15900e-01
4
# CELL(abcABC): 1000.00000  1000.00000  1000.00000    90.00000    90.00000    90.00000  Step:          35  Bead:       0 positions{angstrom}  cell{angstrom}
       O -3.15273e+00  1.06899e+00  3.47556e-01
       H -2.95747e+00  1.20021e-01  4.26374e-01
       H -2.56524e+00  1.53830e+00  9.67902e-01
       H -3.81874e+00  1.44366e+00 -2.25519e-01
4
# CELL(abcABC): 1000.00000  1000.00000  1000.00000    90.00000    90.00000    90.00000  Step:          36  Bead:       0 positions{angstrom}  cell{angstrom}
       O -3.15351e+00  1.06812e+00  3.49211e-01
       H -2.95009e+00  1.18404e-01  4.21558e-01
       H -2.55505e+00  1.54508e+00  9.55582e-01
       H -3.82388e+00  1.45235e+00 -2.34660e-01
4
# CELL(abcABC): 1000.00000  1000.00000  1000.00000    90.00000    90.00000    90.00000  Step:          37  Bead:       0 positions{angstrom}  cell{angstrom}
       O -3.15429e+00  1.06726e+00  3.50831e-01
       H -2.94223e+00  1.18747e-01  4.18305e-01
       H -2.54536e+00  1.55054e+00  9.42007e-01
       H -3.82908e+00  1.46011e+00 -2.43542e-01
4
# CELL(abcABC): 1000.00000  1000.00000  1000.00000    90.00000    90.00000    90.00000  Step:          38  Bead:       0 positions{angstrom}  cell{angstrom}
       O -3.15486e+00  1.06639e+00  3.52661e-01
       H -2.93554e+00  1.19997e-01  4.13720e-01
       H -2.53655e+00  1.55405e+00  9.27436e-01
       H -3.83548e+00  1.46916e+00 -2.53432e-01
4
# CELL(abcABC): 1000.00000  1000.00000  1000.00000    90.00000    90.00000    90.00000  Step:          39  Bead:       0 positions{angstrom}  cell{angstrom}
       O -3.15558e+00  1.06566e+00  3.54390e-01
       H -2.92826e+00  1.21629e-01  4.09577e-01
       H -2.52807e+00  1.55554e+00  9.13268e-01
       H -3.83980e+00  1.47770e+00 -2.62571e-01
4
# CELL(abcABC): 1000.00000  1000.00000  1000.00000    90.00000    90.00000    90.00000  Step:          40  Bead:       0 positions{angstrom}  cell{angstrom}
       O -3.15636e+00  1.06491e+00  3.55894e-01
       H -2.92109e+00  1.24227e-01  4.06396e-01
       H -2.51980e+00  1.55636e+00  9.00507e-01
       H -3.84292e+00  1.48618e+00 -2.70504e-01
4
# CELL(abcABC): 1000.00000  1000.00000  1000.00000    90.00000    90.00000    90.00000  Step:          41  Bead:       0 positions{angstrom}  cell{angstrom}
       O -3.15716e+00  1.06418e+00  3.57267e-01
       H -2.91436e+00  1.28136e-01  4.02848e-01
       H -2.51127e+00  1.55683e+00  8.88069e-01
       H -3.84548e+00  1.49336e+00 -2.76305e-01
4
# CELL(abcABC): 1000.00000  1000.00000  1000.00000    90.00000    90.00000    90.00000  Step:          42  Bead:       0 positions{angstrom}  cell{angstrom}
       O -3.15811e+00  1.06367e+00  3.58585e-01
       H -2.90629e+00  1.30358e-01  3.99073e-01
       H -2.50273e+00  1.55664e+00  8.76180e-01
       H -3.84701e+00  1.49948e+00 -2.81561e-01
4
# CELL(abcABC): 1000.00000  1000.00000  1000.00000    90.00000    90.00000    90.00000  Step:          43  Bead:       0 positions{angstrom}  cell{angstrom}
       O -3.15908e+00  1.06319e+00  3.59792e-01
       H -2.89861e+00  1.33415e-01  3.95056e-01
       H -2.49430e+00  1.55715e+00  8.64847e-01
       H -3.84764e+00  1.50349e+00 -2.85381e-01
4
# CELL(abcABC): 1000.00000  1000.00000  1000.00000    90.00000    90.00000    90.00000  Step:          44  Bead:       0 positions{angstrom}  cell{angstrom}
       O -3.16006e+00  1.06287e+00  3.60867e-01
       H -2.89086e+00  1.35586e-01  3.90540e-01
       H -2.48609e+00  1.55663e+00  8.53429e-01
       H -3.84803e+00  1.50694e+00 -2.86508e-01
4
# CELL(abcABC): 1000.00000  1000.00000  1000.00000    90.00000    90.00000    90.00000  Step:          45  Bead:       0 positions{angstrom}  cell{angstrom}
       O -3.16097e+00  1.06270e+00  3.61863e-01
       H -2.88386e+00  1.37590e-01  3.85480e-01
       H -2.47753e+00  1.55493e+00  8.41655e-01
       H -3.84923e+00  1.50929e+00 -2.85482e-01
4
# CELL(abcABC): 1000.00000  1000.00000  1000.00000    90.00000    90.00000    90.00000  Step:          46  Bead:       0 positions{angstrom}  cell{angstrom}
       O -3.16192e+00  1.06269e+00  3.62748e-01
       H -2.87718e+00  1.39862e-01  3.80094e-01
       H -2.46945e+00  1.55191e+00  8.29922e-01
       H -3.84882e+00  1.51028e+00 -2.82414e-01
4
# CELL(abcABC): 1000.00000  1000.00000  1000.00000    90.00000    90.00000    90.00000  Step:          47  Bead:       0 positions{angstrom}  cell{angstrom}
       O -3.16286e+00  1.06268e+00  3.63611e-01
       H -2.87075e+00  1.41460e-01  3.75048e-01
       H -2.46153e+00  1.54879e+00  8.17913e-01
       H -3.84834e+00  1.51194e+00 -2.79052e-01
4
# CELL(abcABC): 1000.00000  1000.00000  1000.00000    90.00000    90.00000    90.00000  Step:          48  Bead:       0 positions{angstrom}  cell{angstrom}
       O -3.16377e+00  1.06286e+00  3.64313e-01
       H -2.86420e+00  1.41622e-01  3.70369e-01
       H -2.45391e+00  1.54612e+00  8.05822e-01
       H -3.84811e+00  1.51160e+00 -2.73424e-01
4
# CELL(abcABC): 1000.00000  1000.00000  1000.00000    90.00000    90.00000    90.00000  Step:          49  Bead:       0 positions{angstrom}  cell{angstrom}
       O -3.16469e+00  1.06311e+00  3.64748e-01
       H -2.85811e+00  1.41097e-01  3.66319e-01
       H -2.44536e+00  1.54320e+00  7.94553e-01
       H -3.84808e+00  1.51109e+00 -2.65021e-01
4
# CELL(abcABC): 1000.00000  1000.00000  1000.00000    90.00000    90.00000    90.00000  Step:          50  Bead:       0 positions{angstrom}  cell{angstrom}
       O -3.16539e+00  1.06347e+00  3.65136e-01
       H -2.85310e+00  1.40734e-01  3.62007e-01
       H -2.43891e+00  1.53967e+00  7.84040e-01
       H -3.84848e+00  1.50927e+00 -2.56350e-01
4
# CELL(abcABC): 1000.00000  1000.00000  1000.00000    90.00000    90.00000    90.00000  Step:          51  Bead:       0 positions{angstrom}  cell{angstrom}
       O -3.16601e+00  1.06383e+00  3.65392e-01
       H -2.84947e+00  1.40232e-01  3.57263e-01
       H -2.43316e+00  1.53677e+00  7.74102e-01
       H -3.84796e+00  1.50697e+00 -2.45736e-01
4
# CELL(abcABC): 1000.00000  1000.00000  1000.00000    90.00000    90.00000    90.00000  Step:          52  Bead:       0 positions{angstrom}  cell{angstrom}
       O -3.16651e+00  1.06426e+00  3.65620e-01
       H -2.84748e+00  1.40000e-01  3.52532e-01
       H -2.42807e+00  1.53381e+00  7.63773e-01
       H -3.84715e+00  1.50327e+00 -2.34292e-01
4
# CELL(abcABC): 1000.00000  1000.00000  1000.00000    90.00000    90.00000    90.00000  Step:          53  Bead:       0 positions{angstrom}  cell{angstrom}
       O -3.16690e+00  1.06462e+00  3.65679e-01
       H -2.84634e+00  1.40938e-01  3.46907e-01
       H -2.42360e+00  1.53300e+00  7.54897e-01
       H -3.84650e+00  1.49745e+00 -2.20721e-01
4
# CELL(abcABC): 1000.00000  1000.00000  1000.00000    90.00000    90.00000    90.00000  Step:          54  Bead:       0 positions{angstrom}  cell{angstrom}
       O -3.16713e+00  1.06501e+00  3.65341e-01
       H -2.84678e+00  1.41660e-01  3.42433e-01
       H -2.41990e+00  1.53375e+00  7.47653e-01
       H -3.84611e+00  1.48984e+00 -2.03642e-01
4
# CELL(abcABC): 1000.00000  1000.00000  1000.00000    90.00000    90.00000    90.00000  Step:          55  Bead:       0 positions{angstrom}  cell{angstrom}
       O -3.16724e+00  1.06534e+00  3.64841e-01
       H -2.84933e+00  1.43206e-01  3.38872e-01
       H -2.41651e+00  1.53546e+00  7.41932e-01
       H -3.84515e+00  1.48121e+00 -1.86421e-01
4
# CELL(abcABC): 1000.00000  1000.00000  1000.00000    90.00000    90.00000    90.00000  Step:          56  Bead:       0 positions{angstrom}  cell{angstrom}
       O -3.16725e+00  1.06558e+00  3.64227e-01
       H -2.85114e+00  1.45546e-01  3.36110e-01
       H -2.41388e+00  1.53769e+00  7.35896e-01
       H -3.84592e+00  1.47283e+00 -1.67874e-01
4
# CELL(abcABC): 1000.00000  1000.00000  1000.00000    90.00000    90.00000    90.00000  Step:          57  Bead:       0 positions{angstrom}  cell{angstrom}
       O -3.16705e+00  1.06573e+00  3.63471e-01
       H -2.85260e+00  1.48767e-01  3.34104e-01
       H -2.41301e+00  1.54014e+00  7.31575e-01
       H -3.84843e+00  1.46489e+00 -1.49558e-01
4
# CELL(abcABC): 1000.00000  1000.00000  1000.00000    90.00000    90.00000    90.00000  Step:          58  Bead:       0 positions{angstrom}  cell{angstrom}
       O -3.16674e+00  1.06587e+00  3.62649e-01
       H -2.85398e+00  1.51191e-01  3.32194e-01
       H -2.41243e+00  1.54320e+00  7.28615e-01
       H -3.85256e+00  1.45716e+00 -1.31630e-01
4
# CELL(abcABC): 1000.00000  1000.00000  1000.00000    90.00000    90.00000    90.00000  Step:          59  Bead:       0 positions{angstrom}  cell{angstrom}
       O -3.16630e+00  1.06593e+00  3.61665e-01
       H -2.85518e+00  1.53413e-01  3.30648e-01
       H -2.41220e+00  1.54726e+00  7.27960e-01
       H -3.85860e+00  1.44986e+00 -1.13817e-01
4
# CELL(abcABC): 1000.00000  1000.00000  1000.00000    90.00000    90.00000    90.00000  Step:          60  Bead:       0 positions{angstrom}  cell{angstrom}
       O -3.16571e+00  1.06603e+00  3.60709e-01
       H -2.85796e+00  1.54698e-01  3.29447e-01
       H -2.41191e+00  1.55101e+00  7.26362e-01
       H -3.86546e+00  1.44320e+00 -9.58377e-02
4
# CELL(abcABC): 1000.00000  1000.00000  1000.00000    90.00000    90.00000    90.00000  Step:          61  Bead:       0 positions{angstrom}  cell{angstrom}
       O -3.16504e+00  1.06619e+00  3.59783e-01
       H -2.86019e+00  1.54691e-01  3.28248e-01
       H -2.41110e+00  1.55463e+00  7.24009e-01
       H -3.87472e+00  1.43716e+00 -7.75838e-02
4
# CELL(abcABC): 1000.00000  1000.00000  1000.00000    90.00000    90.00000    90.00000  Step:          62  Bead:       0 positions{angstrom}  cell{angstrom}
       O -3.16411e+00  1.06645e+00  3.59008e-01
       H -2.86344e+00  1.53064e-01  3.26846e-01
       H -2.41228e+00  1.55763e+00  7.21556e-01
       H -3.88504e+00  1.43164e+00 -6.14248e-02
4
# CELL(abcABC): 1000.00000  1000.00000  1000.00000    90.00000    90.00000    90.00000  Step:          63  Bead:       0 positions{angstrom}  cell{angstrom}
       O -3.16295e+00  1.06662e+00  3.58101e-01
       H -2.86651e+00  1.51800e-01  3.26169e-01
       H -2.41448e+00  1.55964e+00  7.19313e-01
       H -3.89813e+00  1.42814e+00 -4.41112e-02
4
# CELL(abcABC): 1000.00000  1000.00000  1000.00000    90.00000    90.00000    90.00000  Step:          64  Bead:       0 positions{angstrom}  cell{angstrom}
       O -3.16168e+00  1.06680e+00  3.57169e-01
       H -2.86845e+00  1.50368e-01  3.26731e-01
       H -2.41681e+00  1.56120e+00  7.17520e-01
       H -3.91409e+00  1.42525e+00 -2.80871e-02
4
# CELL(abcABC): 1000.00000  1000.00000  1000.00000    90.00000    90.00000    90.00000  Step:          65  Bead:       0 positions{angstrom}  cell{angstrom}
       O -3.16029e+00  1.06690e+00  3.56263e-01
       H -2.87121e+00  1.49322e-01  3.26444e-01
       H -2.41866e+00  1.56386e+00  7.16054e-01
       H -3.93148e+00  1.42194e+00 -1.19539e-02
4
# CELL(abcABC): 1000.00000  1000.00000  1000.00000    90.00000    90.00000    90.00000  Step:          66  Bead:       0 positions{angstrom}  cell{angstrom}
       O -3.15884e+00  1.06690e+00  3.55257e-01
       H -2.87407e+00  1.50784e-01  3.27064e-01
       H -2.42034e+00  1.56498e+00  7.15413e-01
       H -3.94997e+00  1.41949e+00  4.03392e-03
4
# CELL(abcABC): 1000.00000  1000.00000  1000.00000    90.00000    90.00000    90.00000  Step:          67  Bead:       0 positions{angstrom}  cell{angstrom}
       O -3.15728e+00  1.06696e+00  3.54228e-01
       H -2.87653e+00  1.51184e-01  3.27050e-01
       H -2.42122e+00  1.56622e+00  7.15848e-01
       H -3.97133e+00  1.41675e+00  1.99399e-02
4
# CELL(abcABC): 1000.00000  1000.00000  1000.00000    90.00000    90.00000    90.00000  Step:          68  Bead:       0 positions{angstrom}  cell{angstrom}
       O -3.15576e+00  1.06701e+00  3.53319e-01
       H -2.87811e+00  1.50994e-01  3.26866e-01
       H -2.42131e+00  1.56765e+00  7.15243e-01
       H -3.99384e+00  1.41486e+00  3.51581e-02
4
# CELL(abcABC): 1000.00000  1000.00000  1000.00000    90.00000    90.00000    90.00000  Step:          69  Bead:       0 positions{angstrom}  cell{angstrom}
       O -3.15422e+00  1.06719e+00  3.52201e-01
       H -2.87969e+00  1.48838e-01  3.28394e-01
       H -2.42149e+00  1.56934e+00  7.16048e-01
       H -4.01656e+00  1.41238e+00  5.05806e-02
4
# CELL(abcABC): 1000.00000  1000.00000  1000.00000    90.00000    90.00000    90.00000  Step:          70  Bead:       0 positions{angstrom}  cell{angstrom}
       O -3.15291e+00  1.06727e+00  3.51056e-01
       H -2.88050e+00  1.46916e-01  3.29052e-01
       H -2.42078e+00  1.57200e+00  7.17011e-01
       H -4.03721e+00  1.41038e+00  6.71372e-02
4
# CELL(abcABC): 1000.00000  1000.00000  1000.00000    90.00000    90.00000    90.00000  Step:          71  Bead:       0 positions{angstrom}  cell{angstrom}
       O -3.15166e+00  1.06746e+00  3.49956e-01
       H -2.88154e+00  1.43611e-01  3.28345e-01
       H -2.41991e+00  1.57429e+00  7.17829e-01
       H -4.05687e+00  1.40843e+00  8.44880e-02
4
# CELL(abcABC): 1000.00000  1000.00000  1000.00000    90.00000    90.00000    90.00000  Step:          72  Bead:       0 positions{angstrom}  cell{angstrom}
       O -3.15058e+00  1.06756e+00  3.48790e-01
       H -2.88179e+00  1.40547e-01  3.27925e-01
       H -2.41831e+00  1.57679e+00  7.19576e-01
       H -4.07542e+00  1.40731e+00  1.01668e-01
4
# CELL(abcABC): 1000.00000  1000.00000  1000.00000    90.00000    90.00000    90.00000  Step:          73  Bead:       0 positions{angstrom}  cell{angstrom}
       O -3.14959e+00  1.06772e+00  3.47689e-01
       H -2.88173e+00  1.37556e-01  3.27349e-01
       H -2.41640e+00  1.57953e+00  7.21374e-01
       H -4.09307e+00  1.40514e+00  1.17922e-01
4
# CELL(abcABC): 1000.00000  1000.00000  1000.00000    90.00000    90.00000    90.00000  Step:          74  Bead:       0 positions{angstrom}  cell{angstrom}
       O -3.14878e+00  1.06782e+00  3.46757e-01
       H -2.88090e+00  1.35147e-01  3.25459e-01
       H -2.41447e+00  1.58198e+00  7.21852e-01
       H -4.10878e+00  1.40344e+00  1.34127e-01
4
# CELL(abcABC): 1000.00000  1000.00000  1000.00000    90.00000    90.00000    90.00000  Step:          75  Bead:       0 positions{angstrom}  cell{angstrom}
       O -3.14794e+00  1.06797e+00  3.45851e-01
       H -2.88013e+00  1.32494e-01  3.22996e-01
       H -2.41333e+00  1.58332e+00  7.22783e-01
       H -4.12395e+00  1.40238e+00  1.50032e-01
4
# CELL(abcABC): 1000.00000  1000.00000  1000.00000    90.00000    90.00000    90.00000  Step:          76  Bead:       0 positions{angstrom}  cell{angstrom}
       O -3.14733e+00  1.06799e+00  3.44856e-01
       H -2.87810e+00  1.31113e-01  3.21607e-01
       H -2.41269e+00  1.58407e+00  7.23410e-01
       H -4.13636e+00  1.40266e+00  1.66593e-01
4
# CELL(abcABC): 1000.00000  1000.00000  1000.00000    90.00000    90.00000    90.00000  Step:          77  Bead:       0 positions{angstrom}  cell{angstrom}
       O -3.14677e+00  1.06798e+00  3.43865e-01
       H -2.87576e+00  1.31838e-01  3.20224e-01
       H -2.41296e+00  1.58441e+00  7.24181e-01
       H -4.14729e+00  1.40186e+00  1.82937e-01
4
# CELL(abcABC): 1000.00000  1000.00000  1000.00000    90.00000    90.00000    90.00000  Step:          78  Bead:       0 positions{angstrom}  cell{angstrom}
       O -3.14630e+00  1.06797e+00  3.43087e-01
       H -2.87419e+00  1.33043e-01  3.17883e-01
       H -2.41285e+00  1.58463e+00  7.24193e-01
       H -4.15642e+00  1.40050e+00  1.97619e-01
4
# CELL(abcABC): 1000.00000  1000.00000  1000.00000    90.00000    90.00000    90.00000  Step:          79  Bead:       0 positions{angstrom}  cell{angstrom}
       O -3.14604e+00  1.06808e+00  3.42336e-01
       H -2.87287e+00  1.35827e-01  3.16763e-01
       H -2.41179e+00  1.58321e+00  7.23446e-01
       H -4.16286e+00  1.39738e+00  2.11409e-01
4
# CELL(abcABC): 1000.00000  1000.00000  1000.00000    90.00000    90.00000    90.00000  Step:          80  Bead:       0 positions{angstrom}  cell{angstrom}
       O -3.14604e+00  1.06825e+00  3.41545e-01
       H -2.87073e+00  1.39693e-01  3.15566e-01
       H -2.41055e+00  1.58076e+00  7.23164e-01
       H -4.16622e+00  1.39334e+00  2.25434e-01
4
# CELL(abcABC): 1000.00000  1000.00000  1000.00000    90.00000    90.00000    90.00000  Step:          81  Bead:       0 positions{angstrom}  cell{angstrom}
       O -3.14628e+00  1.06833e+00  3.40895e-01
       H -2.86604e+00  1.44897e-01  3.13603e-01
       H -2.41004e+00  1.57949e+00  7.22473e-01
       H -4.16772e+00  1.38808e+00  2.38410e-01
4
# CELL(abcABC): 1000.00000  1000.00000  1000.00000    90.00000    90.00000    90.00000  Step:          82  Bead:       0 positions{angstrom}  cell{angstrom}
       O -3.14667e+00  1.06862e+00  3.40237e-01
       H -2.86018e+00  1.49583e-01  3.12187e-01
       H -2.40931e+00  1.57648e+00  7.21093e-01
       H -4.16801e+00  1.38178e+00  2.51654e-01
4
# CELL(abcABC): 1000.00000  1000.00000  1000.00000    90.00000    90.00000    90.00000  Step:          83  Bead:       0 positions{angstrom}  cell{angstrom}
       O -3.14727e+00  1.06892e+00  3.39674e-01
       H -2.85381e+00  1.54463e-01  3.10904e-01
       H -2.40868e+00  1.57353e+00  7.19112e-01
       H -4.16559e+00  1.37508e+00  2.63849e-01
4
# CELL(abcABC): 1000.00000  1000.00000  1000.00000    90.00000    90.00000    90.00000  Step:          84  Bead:       0 positions{angstrom}  cell{angstrom}
       O -3.14799e+00  1.06930e+00  3.39246e-01
       H -2.84595e+00  1.58079e-01  3.08213e-01
       H -2.40913e+00  1.57071e+00  7.16422e-01
       H -4.16154e+00  1.36836e+00  2.76023e-01
4
# CELL(abcABC): 1000.00000  1000.00000  1000.00000    90.00000    90.00000    90.00000  Step:          85  Bead:       0 positions{angstrom}  cell{angstrom}