4
# CELL(abcABC): 1000.00000  1000.00000  1000.00000    90.00000    90.00000    90.00000  Step:           0  Bead:       0 positions{angstrom}  cell{angstrom}
       O -3.13857e+00  1.09766e+00  3.39089e-01
       H -2.40868e+00  5.49445e-01  9.72111e-02
       H -3.15284e+00  1.07008e+00  1.27751e+00
       H -4.00475e+00  1.02761e+00 -7.15555e-02
4
# CELL(abcABC): 1000.00000  1000.00000  1000.00000    90.00000    90.00000    90.00000  Step:           1  Bead:       0 positions{angstrom}  cell{angstrom}
       O -3.13690e+00  1.09797e+00  3.38574e-01
       H -2.41794e+00  5.41645e-01  9.98762e-02
       H -3.15317e+00  1.06998e+00  1.28011e+00
       H -4.02174e+00  1.03056e+00 -6.86436e-02
4
# CELL(abcABC): 1000.00000  1000.00000  1000.00000    90.00000    90.00000    90.00000  Step:           2  Bead:       0 positions{angstrom}  cell{angstrom}
       O -3.13544e+00  1.09833e+00  3.38113e-01
       H -2.42608e+00  5.32394e-01  9.97300e-02
       H -3.15283e+00  1.07107e+00  1.28518e+00
       H -4.03704e+00  1.03297e+00 -6.62587e-02
4
# CELL(abcABC): 1000.00000  1000.00000  1000.00000    90.00000    90.00000    90.00000  Step:           3  Bead:       0 positions{angstrom}  cell{angstrom}
       O -3.13416e+00  1.09881e+00  3.37663e-01
       H -2.43227e+00  5.20089e-01  9.80703e-02
       H -3.15361e+00  1.07455e+00  1.29260e+00
       H -4.05034e+00  1.03421e+00 -6.48687e-02
4
# CELL(abcABC): 1000.00000  1000.00000  1000.00000    90.00000    90.00000    90.00000  Step:           4  Bead:       0 positions{angstrom}  cell{angstrom}
       O -3.13317e+00  1.09941e+00  3.37412e-01
       H -2.43762e+00  5.04843e-01  9.22837e-02
       H -3.15450e+00  1.08005e+00  1.30026e+00
       H -4.05990e+00  1.03441e+00 -6.27647e-02
4
# CELL(abcABC): 1000.00000  1000.00000  1000.00000    90.00000    90.00000    90.00000  Step:           5  Bead:       0 positions{angstrom}  cell{angstrom}
       O -3.13233e+00  1.09994e+00  3.37346e-01
       H -2.44340e+00  4.88385e-01  8.36665e-02
       H -3.15667e+00  1.08813e+00  1.30863e+00
       H -4.06523e+00  1.03440e+00 -6.14619e-02
4
# CELL(abcABC): 1000.00000  1000.00000  1000.00000    90.00000    90.00000    90.00000  Step:           6  Bead:       0 positions{angstrom}  cell{angstrom}
       O -3.13162e+00  1.10055e+00  3.37481e-01
       H -2.44960e+00  4.71638e-01  7.21341e-02
       H -3.15994e+00  1.09594e+00  1.31469e+00
       H -4.06711e+00  1.03372e+00 -5.81339e-02
4
# CELL(abcABC): 1000.00000  1000.00000  1000.00000    90.00000    90.00000    90.00000  Step:           7  Bead:       0 positions{angstrom}  cell{angstrom}
       O -3.13114e+00  1.10101e+00  3.37589e-01
       H -2.45564e+00  4.55146e-01  6.05826e-02
       H -3.16364e+00  1.10453e+00  1.31955e+00
       H -4.06487e+00  1.03431e+00 -5.31446e-02
4
# CELL(abcABC): 1000.00000  1000.00000  1000.00000    90.00000    90.00000    90.00000  Step:           8  Bead:       0 positions{angstrom}  cell{angstrom}
       O -3.13090e+00  1.10139e+00  3.37907e-01
       H -2.46269e+00  4.39730e-01  4.77394e-02
       H -3.16641e+00  1.11308e+00  1.32126e+00
       H -4.05894e+00  1.03516e+00 -4.70610e-02
4
# CELL(abcABC): 1000.00000  1000.00000  1000.00000    90.00000    90.00000    90.00000  Step:           9  Bead:       0 positions{angstrom}  cell{angstrom}
       O -3.13078e+00  1.10172e+00  3.38229e-01
       H -2.47222e+00  4.25282e-01  3.60230e-02
       H -3.16798e+00  1.12238e+00  1.32093e+00
       H -4.04972e+00  1.03504e+00 -4.01330e-02
4
# CELL(abcABC): 1000.00000  1000.00000  1000.00000    90.00000    90.00000    90.00000  Step:          10  Bead:       0 positions{angstrom}  cell{angstrom}
       O -3.13068e+00  1.10182e+00  3.38780e-01
       H -2.48438e+00  4.13190e-01  2.40795e-02
       H -3.16903e+00  1.13269e+00  1.31734e+00
       H -4.03806e+00  1.03523e+00 -3.33534e-02
4
# CELL(abcABC): 1000.00000  1000.00000  1000.00000    90.00000    90.00000    90.00000  Step:          11  Bead:       0 positions{angstrom}  cell{angstrom}
       O -3.13053e+00  1.10175e+00  3.39548e-01
       H -2.49901e+00  4.04579e-01  1.18034e-02
       H -3.17087e+00  1.14284e+00  1.31126e+00
       H -4.02395e+00  1.03477e+00 -2.71856e-02
4
# CELL(abcABC): 1000.00000  1000.00000  1000.00000    90.00000    90.00000    90.00000  Step:          12  Bead:       0 positions{angstrom}  cell{angstrom}
       O -3.13041e+00  1.10157e+00  3.40428e-01
       H -2.51476e+00  3.98725e-01  5.24228e-04
       H -3.17219e+00  1.15168e+00  1.30287e+00
       H -4.00878e+00  1.03473e+00 -2.14787e-02
4
# CELL(abcABC): 1000.00000  1000.00000  1000.00000    90.00000    90.00000    90.00000  Step:          13  Bead:       0 positions{angstrom}  cell{angstrom}
       O -3.13020e+00  1.10123e+00  3.41278e-01
       H -2.53242e+00  3.96372e-01 -8.90607e-03
       H -3.17153e+00  1.16014e+00  1.29426e+00
       H -3.99524e+00  1.03391e+00 -1.69407e-02
4
# CELL(abcABC): 1000.00000  1000.00000  1000.00000    90.00000    90.00000    90.00000  Step:          14  Bead:       0 positions{angstrom}  cell{angstrom}
       O -3.12983e+00  1.10074e+00  3.42030e-01
       H -2.55003e+00  3.96319e-01 -1.61595e-02
       H -3.16963e+00  1.16888e+00  1.28661e+00
       H -3.98539e+00  1.03301e+00 -1.39642e-02
4
# CELL(abcABC): 1000.00000  1000.00000  1000.00000    90.00000    90.00000    90.00000  Step:          15  Bead:       0 positions{angstrom}  cell{angstrom}
       O -3.12916e+00  1.10003e+00  3.42454e-01
       H -2.57013e+00  3.97775e-01 -1.94732e-02
       H -3.16756e+00  1.17781e+00  1.28122e+00
       H -3.97797e+00  1.03386e+00 -1.19984e-02
4
# CELL(abcABC): 1000.00000  1000.00000  1000.00000    90.00000    90.00000    90.00000  Step:          16  Bead:       0 positions{angstrom}  cell{angstrom}
       O -3.12830e+00  1.09920e+00  3.42746e-01
       H -2.58872e+00  3.99880e-01 -2.15811e-02
       H -3.16491e+00  1.18751e+00  1.27872e+00
       H -3.97560e+00  1.03531e+00 -1.20267e-02
4
# CELL(abcABC): 1000.00000  1000.00000  1000.00000    90.00000    90.00000    90.00000  Step:          17  Bead:       0 positions{angstrom}  cell{angstrom}
       O -3.12718e+00  1.09836e+00  3.42902e-01
       H -2.60507e+00  4.02321e-01 -2.22864e-02
       H -3.16252e+00  1.19760e+00  1.27835e+00
       H -3.97951e+00  1.03607e+00 -1.34272e-02
4
# CELL(abcABC): 1000.00000  1000.00000  1000.00000    90.00000    90.00000    90.00000  Step:          18  Bead:       0 positions{angstrom}  cell{angstrom}
       O -3.12594e+00  1.09751e+00  3.42935e-01
       H -2.61989e+00  4.04246e-01 -2.20840e-02
       H -3.15826e+00  1.20736e+00  1.28087e+00
       H -3.98868e+00  1.03794e+00 -1.66715e-02
4
# CELL(abcABC): 1000.00000  1000.00000  1000.00000    90.00000    90.00000    90.00000  Step:          19  Bead:       0 positions{angstrom}  cell{angstrom}
       O -3.12484e+00  1.09685e+00  3.42859e-01
       H -2.63076e+00  4.03463e-01 -2.12188e-02
       H -3.15397e+00  1.21611e+00  1.28512e+00
       H -3.99942e+00  1.04047e+00 -2.05746e-02
4
# CELL(abcABC): 1000.00000  1000.00000  1000.00000    90.00000    90.00000    90.00000  Step:          20  Bead:       0 positions{angstrom}  cell{angstrom}
       O -3.12394e+00  1.09644e+00  3.42785e-01
       H -2.63742e+00  3.99713e-01 -2.19264e-02
       H -3.14980e+00  1.22436e+00  1.29120e+00
       H -4.01132e+00  1.04250e+00 -2.47779e-02
4
# CELL(abcABC): 1000.00000  1000.00000  1000.00000    90.00000    90.00000    90.00000  Step:          21  Bead:       0 positions{angstrom}  cell{angstrom}
       O -3.12340e+00  1.09625e+00  3.42765e-01
       H -2.64028e+00  3.91858e-01 -2.40817e-02
       H -3.14317e+00  1.23239e+00  1.29880e+00
       H -4.02365e+00  1.04527e+00 -2.99071e-02
4
# CELL(abcABC): 1000.00000  1000.00000  1000.00000    90.00000    90.00000    90.00000  Step:          22  Bead:       0 positions{angstrom}  cell{angstrom}
       O -3.12328e+00  1.09619e+00  3.42845e-01
       H -2.64050e+00  3.80109e-01 -2.52878e-02
       H -3.13345e+00  1.23971e+00  1.30425e+00
       H -4.03497e+00  1.05068e+00 -3.54211e-02
4
# CELL(abcABC): 1000.00000  1000.00000  1000.00000    90.00000    90.00000    90.00000  Step:          23  Bead:       0 positions{angstrom}  cell{angstrom}
       O -3.12358e+00  1.09625e+00  3.43110e-01
       H -2.63768e+00  3.66981e-01 -2.65459e-02
       H -3.12185e+00  1.24645e+00  1.30873e+00
       H -4.04466e+00  1.05607e+00 -4.28468e-02
4
# CELL(abcABC): 1000.00000  1000.00000  1000.00000    90.00000    90.00000    90.00000  Step:          24  Bead:       0 positions{angstrom}  cell{angstrom}
       O -3.12428e+00  1.09627e+00  3.43353e-01
       H -2.63239e+00  3.52363e-01 -2.67667e-02
       H -3.10895e+00  1.25310e+00  1.31148e+00
       H -4.05182e+00  1.06378e+00 -4.92214e-02
4
# CELL(abcABC): 1000.00000  1000.00000  1000.00000    90.00000    90.00000    90.00000  Step:          25  Bead:       0 positions{angstrom}  cell{angstrom}
       O -3.12526e+00  1.09633e+00  3.43437e-01
       H -2.62637e+00  3.37790e-01 -2.44427e-02
       H -3.09563e+00  1.25792e+00  1.31201e+00
       H -4.05560e+00  1.07260e+00 -5.34113e-02
4
# CELL(abcABC): 1000.00000  1000.00000  1000.00000    90.00000    90.00000    90.00000  Step:          26  Bead:       0 positions{angstrom}  cell{angstrom}
       O -3.12649e+00  1.09634e+00  3.43391e-01
       H -2.62058e+00  3.24943e-01 -2.06041e-02
       H -3.08143e+00  1.26127e+00  1.30978e+00
       H -4.05607e+00  1.08181e+00 -5.42861e-02
4
# CELL(abcABC): 1000.00000  1000.00000  1000.00000    90.00000    90.00000    90.00000  Step:          27  Bead:       0 positions{angstrom}  cell{angstrom}
       O -3.12801e+00  1.09616e+00  3.43234e-01
       H -2.61599e+00  3.16501e-01 -1.49314e-02
       H -3.06686e+00  1.26269e+00  1.30476e+00
       H -4.05105e+00  1.09181e+00 -5.24579e-02
4
# CELL(abcABC): 1000.00000  1000.00000  1000.00000    90.00000    90.00000    90.00000  Step:          28  Bead:       0 positions{angstrom}  cell{angstrom}
       O -3.12959e+00  1.09574e+00  3.42859e-01
       H -2.61400e+00  3.10606e-01 -6.88845e-03
       H -3.05157e+00  1.26332e+00  1.29796e+00
       H -4.04318e+00  1.10373e+00 -4.77520e-02
4
# CELL(abcABC): 1000.00000  1000.00000  1000.00000    90.00000    90.00000    90.00000  Step:          29  Bead:       0 positions{angstrom}  cell{angstrom}
       O -3.13124e+00  1.09501e+00  3.42340e-01
       H -2.61318e+00  3.09352e-01  2.06326e-03
       H -3.03730e+00  1.26323e+00  1.28966e+00
       H -4.03214e+00  1.11657e+00 -4.01659e-02
4
# CELL(abcABC): 1000.00000  1000.00000  1000.00000    90.00000    90.00000    90.00000  Step:          30  Bead:       0 positions{angstrom}  cell{angstrom}
       O -3.13283e+00  1.09390e+00  3.41635e-01
       H -2.61391e+00  3.13292e-01  1.37326e-02
       H -3.02353e+00  1.26274e+00  1.28101e+00
       H -4.01989e+00  1.13078e+00 -3.19896e-02
4
# CELL(abcABC): 1000.00000  1000.00000  1000.00000    90.00000    90.00000    90.00000  Step:          31  Bead:       0 positions{angstrom}  cell{angstrom}
       O -3.13442e+00  1.09241e+00  3.40871e-01
       H -2.61479e+00  3.20948e-01  2.69606e-02
       H -3.00958e+00  1.26337e+00  1.27169e+00
       H -4.00777e+00  1.14620e+00 -2.37716e-02
4
# CELL(abcABC): 1000.00000  1000.00000  1000.00000    90.00000    90.00000    90.00000  Step:          32  Bead:       0 positions{angstrom}  cell{angstrom}
       O -3.13577e+00  1.09078e+00  3.39857e-01
       H -2.61789e+00  3.29249e-01  4.14194e-02
       H -2.99564e+00  1.26566e+00  1.26429e+00
       H -3.99726e+00  1.16145e+00 -1.47425e-02
4
# CELL(abcABC): 1000.00000  1000.00000  1000.00000    90.00000    90.00000    90.00000  Step:          33  Bead:       0 positions{angstrom}  cell{angstrom}
       O -3.13681e+00  1.08912e+00  3.38738e-01
       H -2.62223e+00  3.37978e-01  5.68669e-02
       H -2.98199e+00  1.26767e+00  1.25854e+00
       H -3.98993e+00  1.17698e+00 -6.66875e-03
4
# CELL(abcABC): 1000.00000  1000.00000  1000.00000    90.00000    90.00000    90.00000  Step:          34  Bead:       0 positions{angstrom}  cell{angstrom}
       O -3.13741e+00  1.08745e+00  3.37806e-01
       H -2.62604e+00  3.45942e-01  7.09357e-02
       H -2.97095e+00  1.27015e+00  1.25450e+00
       H -3.98765e+00  1.19316e+00 -1.89616e-03
4
# CELL(abcABC): 1000.00000  1000.00000  1000.00000    90.00000    90.00000    90.00000  Step:          35  Bead:       0 positions{angstrom}  cell{angstrom}
       O -3.13775e+00  1.08578e+00  3.37043e-01
       H -2.62723e+00  3.51538e-01  8.21074e-02
       H -2.96206e+00  1.27470e+00  1.25253e+00
       H -3.98995e+00  1.20947e+00  1.00292e-03
4
# CELL(abcABC): 1000.00000  1000.00000  1000.00000    90.00000    90.00000    90.00000  Step:          36  Bead:       0 positions{angstrom}  cell{angstrom}
       O -3.13789e+00  1.08416e+00  3.36529e-01
       H -2.62661e+00  3.53567e-01  8.98929e-02
       H -2.95407e+00  1.28179e+00  1.25087e+00
       H -3.99632e+00  1.22611e+00  3.03086e-03
4
# CELL(abcABC): 1000.00000  1000.00000  1000.00000    90.00000    90.00000    90.00000  Step:          37  Bead:       0 positions{angstrom}  cell{angstrom}
       O -3.13795e+00  1.08278e+00  3.36163e-01
       H -2.62353e+00  3.52133e-01  9.61680e-02
       H -2.94664e+00  1.28952e+00  1.24954e+00
       H -4.00601e+00  1.24172e+00  3.90307e-03
4
# CELL(abcABC): 1000.00000  1000.00000  1000.00000    90.00000    90.00000    90.00000  Step:          38  Bead:       0 positions{angstrom}  cell{angstrom}
       O -3.13777e+00  1.08161e+00  3.36220e-01
       H -2.61972e+00  3.46136e-01  9.78725e-02
       H -2.94017e+00  1.29732e+00  1.24837e+00
       H -4.01903e+00  1.25841e+00  2.46446e-03
4
# CELL(abcABC): 1000.00000  1000.00000  1000.00000    90.00000    90.00000    90.00000  Step:          39  Bead:       0 positions{angstrom}  cell{angstrom}
       O -3.13778e+00  1.08078e+00  3.36398e-01
       H -2.61401e+00  3.35852e-01  9.69073e-02
       H -2.93422e+00  1.30500e+00  1.24826e+00
       H -4.03059e+00  1.27422e+00  7.14688e-04
4
# CELL(abcABC): 1000.00000  1000.00000  1000.00000    90.00000    90.00000    90.00000  Step:          40  Bead:       0 positions{angstrom}  cell{angstrom}
       O -3.13788e+00  1.08007e+00  3.36575e-01
       H -2.60806e+00  3.23328e-01  9.41966e-02
       H -2.92885e+00  1.31366e+00  1.24958e+00
       H -4.04037e+00  1.28943e+00 -6.95941e-04
4
# CELL(abcABC): 1000.00000  1000.00000  1000.00000    90.00000    90.00000    90.00000  Step:          41  Bead:       0 positions{angstrom}  cell{angstrom}
       O -3.13802e+00  1.07942e+00  3.36848e-01
       H -2.60325e+00  3.10657e-01  8.89311e-02
       H -2.92369e+00  1.32329e+00  1.25051e+00
       H -4.04800e+00  1.30265e+00 -7.06146e-04
4
# CELL(abcABC): 1000.00000  1000.00000  1000.00000    90.00000    90.00000    90.00000  Step:          42  Bead:       0 positions{angstrom}  cell{angstrom}
       O -3.13833e+00  1.07896e+00  3.37298e-01
       H -2.59877e+00  2.96663e-01  8.17873e-02
       H -2.91907e+00  1.33330e+00  1.25063e+00
       H -4.05230e+00  1.31401e+00 -8.31137e-04
4
# CELL(abcABC): 1000.00000  1000.00000  1000.00000    90.00000    90.00000    90.00000  Step:          43  Bead:       0 positions{angstrom}  cell{angstrom}
       O -3.13863e+00  1.07842e+00  3.37862e-01
       H -2.59721e+00  2.85436e-01  7.33561e-02
       H -2.91508e+00  1.34470e+00  1.24946e+00
       H -4.05297e+00  1.32239e+00 -1.72333e-04
4
# CELL(abcABC): 1000.00000  1000.00000  1000.00000    90.00000    90.00000    90.00000  Step:          44  Bead:       0 positions{angstrom}  cell{angstrom}
       O -3.13891e+00  1.07786e+00  3.38509e-01
       H -2.59867e+00  2.76506e-01  6.38918e-02
       H -2.91171e+00  1.35552e+00  1.24602e+00
       H -4.05051e+00  1.32935e+00  2.46245e-03
4
# CELL(abcABC): 1000.00000  1000.00000  1000.00000    90.00000    90.00000    90.00000  Step:          45  Bead:       0 positions{angstrom}  cell{angstrom}
       O -3.13906e+00  1.07725e+00  3.39278e-01
       H -2.60424e+00  2.71390e-01  5.37952e-02
       H -2.90823e+00  1.36537e+00  1.23997e+00
       H -4.04606e+00  1.33440e+00  6.40023e-03
4
# CELL(abcABC): 1000.00000  1000.00000  1000.00000    90.00000    90.00000    90.00000  Step:          46  Bead:       0 positions{angstrom}  cell{angstrom}
       O -3.13921e+00  1.07655e+00  3.40114e-01
       H -2.61345e+00  2.70887e-01  4.36190e-02
       H -2.90525e+00  1.37390e+00  1.23192e+00
       H -4.03747e+00  1.33738e+00  1.13549e-02
4
# CELL(abcABC): 1000.00000  1000.00000  1000.00000    90.00000    90.00000    90.00000  Step:          47  Bead:       0 positions{angstrom}  cell{angstrom}
       O -3.13928e+00  1.07564e+00  3.41083e-01
       H -2.62588e+00  2.74024e-01  3.42340e-02
       H -2.90226e+00  1.38220e+00  1.22196e+00
       H -4.02685e+00  1.34050e+00  1.53177e-02
4
# CELL(abcABC): 1000.00000  1000.00000  1000.00000    90.00000    90.00000    90.00000  Step:          48  Bead:       0 positions{angstrom}  cell{angstrom}
       O -3.13929e+00  1.07470e+00  3.42021e-01
       H -2.64056e+00  2.79556e-01  2.57321e-02
       H -2.89910e+00  1.39072e+00  1.21093e+00
       H -4.01525e+00  1.34133e+00  1.99616e-02
4
# CELL(abcABC): 1000.00000  1000.00000  1000.00000    90.00000    90.00000    90.00000  Step:          49  Bead:       0 positions{angstrom}  cell{angstrom}
       O -3.13928e+00  1.07367e+00  3.42800e-01
       H -2.65720e+00  2.87252e-01  1.83199e-02
       H -2.89421e+00  1.39875e+00  1.20048e+00
       H -4.00352e+00  1.34198e+00  2.54646e-02
4
# CELL(abcABC): 1000.00000  1000.00000  1000.00000    90.00000    90.00000    90.00000  Step:          50  Bead:       0 positions{angstrom}  cell{angstrom}
       O -3.13906e+00  1.07264e+00  3.43626e-01
       H -2.67536e+00  2.96587e-01  1.08880e-02
       H -2.89021e+00  1.40599e+00  1.19127e+00
       H -3.99287e+00  1.34164e+00  2.89906e-02
4
# CELL(abcABC): 1000.00000  1000.00000  1000.00000    90.00000    90.00000    90.00000  Step:          51  Bead:       0 positions{angstrom}  cell{angstrom}
       O -3.13881e+00  1.07161e+00  3.44421e-01
       H -2.69409e+00  3.05635e-01  2.90705e-03
       H -2.88545e+00  1.41360e+00  1.18368e+00
       H -3.98287e+00  1.34143e+00  3.19447e-02
4
# CELL(abcABC): 1000.00000  1000.00000  1000.00000    90.00000    90.00000    90.00000  Step:          52  Bead:       0 positions{angstrom}  cell{angstrom}
       O -3.13852e+00  1.07073e+00  3.45308e-01
       H -2.71243e+00  3.13099e-01 -5.62318e-03
       H -2.87969e+00  1.42080e+00  1.17707e+00
       H -3.97500e+00  1.34075e+00  3.30036e-02
4
# CELL(abcABC): 1000.00000  1000.00000  1000.00000    90.00000    90.00000    90.00000  Step:          53  Bead:       0 positions{angstrom}  cell{angstrom}
       O -3.13823e+00  1.06995e+00  3.46168e-01
       H -2.72850e+00  3.18356e-01 -1.60498e-02
       H -2.87284e+00  1.42961e+00  1.17346e+00
       H -3.97031e+00  1.33910e+00  3.33963e-02
4
# CELL(abcABC): 1000.00000  1000.00000  1000.00000    90.00000    90.00000    90.00000  Step:          54  Bead:       0 positions{angstrom}  cell{angstrom}
       O -3.13793e+00  1.06943e+00  3.46800e-01
       H -2.74225e+00  3.19043e-01 -2.66208e-02
       H -2.86498e+00  1.43919e+00  1.17278e+00
       H -3.96915e+00  1.33696e+00  3.46108e-02
4
# CELL(abcABC): 1000.00000  1000.00000  1000.00000    90.00000    90.00000    90.00000  Step:          55  Bead:       0 positions{angstrom}  cell{angstrom}
       O -3.13769e+00  1.06916e+00  3.47457e-01
       H -2.75388e+00  3.15878e-01 -3.75846e-02
       H -2.85574e+00  1.44860e+00  1.17433e+00
       H -3.97059e+00  1.33504e+00  3.35858e-02
4
# CELL(abcABC): 1000.00000  1000.00000  1000.00000    90.00000    90.00000    90.00000  Step:          56  Bead:       0 positions{angstrom}  cell{angstrom}
       O -3.13754e+00  1.06908e+00  3.48189e-01
       H -2.76061e+00  3.09286e-01 -4.87742e-02
       H -2.84565e+00  1.45702e+00  1.17549e+00
       H -3.97640e+00  1.33447e+00  3.20034e-02
4
# CELL(abcABC): 1000.00000  1000.00000  1000.00000    90.00000    90.00000    90.00000  Step:          57  Bead:       0 positions{angstrom}  cell{angstrom}
       O -3.13741e+00  1.06916e+00  3.48930e-01
       H -2.76332e+00  3.00569e-01 -5.96273e-02
       H -2.83586e+00  1.46386e+00  1.17759e+00
       H -3.98554e+00  1.33509e+00  2.89971e-02
4
# CELL(abcABC): 1000.00000  1000.00000  1000.00000    90.00000    90.00000    90.00000  Step:          58  Bead:       0 positions{angstrom}  cell{angstrom}
       O -3.13742e+00  1.06944e+00  3.49696e-01
       H -2.76298e+00  2.89736e-01 -7.00219e-02
       H -2.82517e+00  1.46917e+00  1.17962e+00
       H -3.99645e+00  1.33620e+00  2.52058e-02
4
# CELL(abcABC): 1000.00000  1000.00000  1000.00000    90.00000    90.00000    90.00000  Step:          59  Bead:       0 positions{angstrom}  cell{angstrom}
       O -3.13757e+00  1.06977e+00  3.50324e-01
       H -2.76034e+00  2.79208e-01 -7.88128e-02
       H -2.81387e+00  1.47313e+00  1.18194e+00
       H -4.00790e+00  1.33755e+00  2.17044e-02
4
# CELL(abcABC): 1000.00000  1000.00000  1000.00000    90.00000    90.00000    90.00000  Step:          60  Bead:       0 positions{angstrom}  cell{angstrom}
       O -3.13789e+00  1.07019e+00  3.50938e-01
       H -2.75797e+00  2.69922e-01 -8.52394e-02
       H -2.80171e+00  1.47435e+00  1.18083e+00
       H -4.01741e+00  1.33890e+00  1.94899e-02
4
# CELL(abcABC): 1000.00000  1000.00000  1000.00000    90.00000    90.00000    90.00000  Step:          61  Bead:       0 positions{angstrom}  cell{angstrom}
       O -3.13844e+00  1.07065e+00  3.51479e-01
       H -2.75445e+00  2.62837e-01 -8.90645e-02
       H -2.78837e+00  1.47307e+00  1.17633e+00
       H -4.02548e+00  1.33990e+00  1.92279e-02
4
# CELL(abcABC): 1000.00000  1000.00000  1000.00000    90.00000    90.00000    90.00000  Step:          62  Bead:       0 positions{angstrom}  cell{angstrom}
       O -3.13907e+00  1.07116e+00  3.52010e-01
       H -2.75188e+00  2.58493e-01 -9.01126e-02
       H -2.77643e+00  1.46909e+00  1.16925e+00
       H -4.03004e+00  1.34023e+00  1.89296e-02
4
# CELL(abcABC): 1000.00000  1000.00000  1000.00000    90.00000    90.00000    90.00000  Step:          63  Bead:       0 positions{angstrom}  cell{angstrom}
       O -3.13978e+00  1.07147e+00  3.52203e-01
       H -2.74946e+00  2.59213e-01 -8.73012e-02
       H -2.76508e+00  1.46235e+00  1.16027e+00
       H -4.03248e+00  1.34134e+00  2.20399e-02
4
# CELL(abcABC): 1000.00000  1000.00000  1000.00000    90.00000    90.00000    90.00000  Step:          64  Bead:       0 positions{angstrom}  cell{angstrom}
       O -3.14066e+00  1.07165e+00  3.52140e-01
       H -2.74646e+00  2.64383e-01 -8.02572e-02
       H -2.75362e+00  1.45373e+00  1.15016e+00
       H -4.03297e+00  1.34182e+00  2.61037e-02
4
# CELL(abcABC): 1000.00000  1000.00000  1000.00000    90.00000    90.00000    90.00000  Step:          65  Bead:       0 positions{angstrom}  cell{angstrom}
       O -3.14167e+00  1.07165e+00  3.51868e-01
       H -2.74489e+00  2.73995e-01 -7.14843e-02
       H -2.74164e+00  1.44520e+00  1.13945e+00
       H -4.03046e+00  1.34078e+00  3.23520e-02
4
# CELL(abcABC): 1000.00000  1000.00000  1000.00000    90.00000    90.00000    90.00000  Step:          66  Bead:       0 positions{angstrom}  cell{angstrom}
       O -3.14282e+00  1.07142e+00  3.51281e-01
       H -2.74392e+00  2.89228e-01 -5.99043e-02
       H -2.72949e+00  1.43459e+00  1.12932e+00
       H -4.02545e+00  1.33977e+00  4.02153e-02
4
# CELL(abcABC): 1000.00000  1000.00000  1000.00000    90.00000    90.00000    90.00000  Step:          67  Bead:       0 positions{angstrom}  cell{angstrom}
       O -3.14399e+00  1.07119e+00  3.50509e-01
       H -2.74272e+00  3.05230e-01 -4.80949e-02
       H -2.71667e+00  1.42404e+00  1.12067e+00
       H -4.02087e+00  1.33799e+00  4.93232e-02
4
# CELL(abcABC): 1000.00000  1000.00000  1000.00000    90.00000    90.00000    90.00000  Step:          68  Bead:       0 positions{angstrom}  cell{angstrom}
       O -3.14527e+00  1.07091e+00  3.49766e-01
       H -2.74032e+00  3.20784e-01 -3.67833e-02
       H -2.70331e+00  1.41405e+00  1.11187e+00
       H -4.01631e+00  1.33696e+00  5.86001e-02
4
# CELL(abcABC): 1000.00000  1000.00000  1000.00000    90.00000    90.00000    90.00000  Step:          69  Bead:       0 positions{angstrom}  cell{angstrom}
       O -3.14655e+00  1.07081e+00  3.48805e-01
       H -2.73701e+00  3.32648e-01 -2.53328e-02
       H -2.69041e+00  1.40512e+00  1.10581e+00
       H -4.01223e+00  1.33564e+00  6.84670e-02
4
# CELL(abcABC): 1000.00000  1000.00000  1000.00000    90.00000    90.00000    90.00000  Step:          70  Bead:       0 positions{angstrom}  cell{angstrom}
       O -3.14801e+00  1.07071e+00  3.47894e-01
       H -2.73147e+00  3.41156e-01 -1.74201e-02
       H -2.67724e+00  1.39829e+00  1.10140e+00
       H -4.00778e+00  1.33547e+00  7.94204e-02
4
# CELL(abcABC): 1000.00000  1000.00000  1000.00000    90.00000    90.00000    90.00000  Step:          71  Bead:       0 positions{angstrom}  cell{angstrom}
       O -3.14938e+00  1.07087e+00  3.47180e-01
       H -2.72449e+00  3.43470e-01 -1.42864e-02
       H -2.66477e+00  1.39250e+00  1.09831e+00
       H -4.00548e+00  1.33638e+00  9.07087e-02
4
# CELL(abcABC): 1000.00000  1000.00000  1000.00000    90.00000    90.00000    90.00000  Step:          72  Bead:       0 positions{angstrom}  cell{angstrom}
       O -3.15066e+00  1.07109e+00  3.46591e-01
       H -2.71532e+00  3.40901e-01 -1.44423e-02
       H -2.65273e+00  1.38852e+00  1.09745e+00
       H -4.00636e+00  1.33940e+00  1.01080e-01
4
# CELL(abcABC): 1000.00000  1000.00000  1000.00000    90.00000    90.00000    90.00000  Step:          73  Bead:       0 positions{angstrom}  cell{angstrom}
       O -3.15167e+00  1.07145e+00  3.46267e-01
       H -2.70518e+00  3.33856e-01 -1.80175e-02
       H -2.64182e+00  1.38651e+00  1.09758e+00
       H -4.01129e+00  1.34276e+00  1.09662e-01
4
# CELL(abcABC): 1000.00000  1000.00000  1000.00000    90.00000    90.00000    90.00000  Step:          74  Bead:       0 positions{angstrom}  cell{angstrom}
       O -3.15241e+00  1.07178e+00  3.46287e-01
       H -2.69471e+00  3.24048e-01 -2.54840e-02
       H -2.63256e+00  1.38601e+00  1.09699e+00
       H -4.01930e+00  1.34792e+00  1.17412e-01
4
# CELL(abcABC): 1000.00000  1000.00000  1000.00000    90.00000    90.00000    90.00000  Step:          75  Bead:       0 positions{angstrom}  cell{angstrom}
       O -3.15263e+00  1.07208e+00  3.46455e-01
       H -2.68591e+00  3.12206e-01 -3.52070e-02
       H -2.62596e+00  1.38623e+00  1.09716e+00
       H -4.03127e+00  1.35482e+00  1.24293e-01
4
# CELL(abcABC): 1000.00000  1000.00000  1000.00000    90.00000    90.00000    90.00000  Step:          76  Bead:       0 positions{angstrom}  cell{angstrom}
       O -3.15255e+00  1.07211e+00  3.46590e-01
       H -2.67857e+00  3.01320e-01 -4.46005e-02
       H -2.62183e+00  1.38764e+00  1.09709e+00
       H -4.04396e+00  1.36375e+00  1.31605e-01
4
# CELL(abcABC): 1000.00000  1000.00000  1000.00000    90.00000    90.00000    90.00000  Step:          77  Bead:       0 positions{angstrom}  cell{angstrom}
       O -3.15203e+00  1.07193e+00  3.46726e-01
       H -2.67446e+00  2.93444e-01 -5.39323e-02
       H -2.62066e+00  1.39031e+00  1.09707e+00
       H -4.05745e+00  1.37183e+00  1.38810e-01
4
# CELL(abcABC): 1000.00000  1000.00000  1000.00000    90.00000    90.00000    90.00000  Step:          78  Bead:       0 positions{angstrom}  cell{angstrom}
       O -3.15115e+00  1.07156e+00  3.47017e-01
       H -2.67518e+00  2.87931e-01 -6.35480e-02
       H -2.62111e+00  1.39437e+00  1.09610e+00
       H -4.07025e+00  1.37915e+00  1.44775e-01
4
# CELL(abcABC): 1000.00000  1000.00000  1000.00000    90.00000    90.00000    90.00000  Step:          79  Bead:       0 positions{angstrom}  cell{angstrom}
       O -3.15010e+00  1.07110e+00  3.47230e-01
       H -2.68046e+00  2.86543e-01 -7.07968e-02
       H -2.62249e+00  1.39816e+00  1.09420e+00
       H -4.08034e+00  1.38406e+00  1.50538e-01
4
# CELL(abcABC): 1000.00000  1000.00000  1000.00000    90.00000    90.00000    90.00000  Step:          80  Bead:       0 positions{angstrom}  cell{angstrom}
       O -3.14898e+00  1.07049e+00  3.47264e-01
       H -2.68916e+00  2.89135e-01 -7.67397e-02
       H -2.62531e+00  1.40213e+00  1.09272e+00
       H -4.08653e+00  1.38710e+00  1.57416e-01
4
# CELL(abcABC): 1000.00000  1000.00000  1000.00000    90.00000    90.00000    90.00000  Step:          81  Bead:       0 positions{angstrom}  cell{angstrom}
       O -3.14785e+00  1.06963e+00  3.47282e-01
       H -2.69923e+00  2.96009e-01 -8.20204e-02
       H -2.63019e+00  1.40830e+00  1.09091e+00
       H -4.08950e+00  1.38772e+00  1.64225e-01
4
# CELL(abcABC): 1000.00000  1000.00000  1000.00000    90.00000    90.00000    90.00000  Step:          82  Bead:       0 positions{angstrom}  cell{angstrom}
       O -3.14671e+00  1.06884e+00  3.47132e-01
       H -2.71149e+00  3.05071e-01 -8.54645e-02
       H -2.63584e+00  1.41353e+00  1.08866e+00
       H -4.08965e+00  1.38599e+00  1.72305e-01
4
# CELL(abcABC): 1000.00000  1000.00000  1000.00000    90.00000    90.00000    90.00000  Step:          83  Bead:       0 positions{angstrom}  cell{angstrom}
       O -3.14568e+00  1.06798e+00  3.46928e-01
       H -2.72583e+00  3.16331e-01 -8.78312e-02
       H -2.64221e+00  1.41939e+00  1.08625e+00
       H -4.08543e+00  1.38249e+00  1.80313e-01
4
# CELL(abcABC): 1000.00000  1000.00000  1000.00000    90.00000    90.00000    90.00000  Step:          84  Bead:       0 positions{angstrom}  cell{angstrom}
       O -3.14474e+00  1.06720e+00  3.46739e-01
       H -2.74023e+00  3.27251e-01 -9.12343e-02
       H -2.64993e+00  1.42567e+00  1.08378e+00
       H -4.07816e+00  1.37765e+00  1.89183e-01
4
# CELL(abcABC): 1000.00000  1000.00000  1000.00000    90.00000    90.00000    90.00000  Step:          85  Bead:       0 positions{angstrom}  cell{angstrom}