11115
# CELL(abcABC):   47.66706    47.66706    47.66706    90.00000    90.00000    90.00000  Step:       10000  Bead:       0 positions{angstrom}  cell{angstrom}
       C  5.04659e-01  6.28753e-02  3.67728e+00
       H  7.61876e-01  3.74162e-01  2.65676e+00
       H  3.91297e-01  8.96070e-01  4.42214e+00
       H -5.63487e-01 -3.68524e-01  3.54275e+00
       C  1.47321e+00 -9.86537e-01  4.13858e+00
       O  1.05242e+00 -1.83496e+00  4.84699e+00
       N  2.75599e+00 -7.41579e-01  3.85158e+00
       H  3.00151e+00  9.47267e-02  3.36149e+00
       C  3.93007e+00 -1.55557e+00  4.15634e+00
       H  3.57634e+00 -2.57779e+00  4.20796e+00
       C  4.96519e+00 -1.50418e+00  3.05048e+00
       H  5.22765e+00 -4.52244e-01  2.71875e+00
       H  4.44114e+00 -1.87113e+00  2.15173e+00
       C  6.17254e+00 -2.40645e+00  3.16319e+00
       O  7.20031e+00 -2.21928e+00  2.46771e+00
       O  6.08247e+00 -3.43791e+00  3.95021e+00
       H  6.90425e+00 -4.01335e+00  3.92210e+00
       C  4.60418e+00 -1.15349e+00  5.48867e+00
       O  5.79533e+00 -9.39447e-01  5.53955e+00
       N  3.82070e+00 -9.94714e-01  6.58731e+00
       H  4.26846e+00 -9.58694e-01  7.51518e+00
       H  2.81776e+00 -1.08670e+00  6.43977e+00
       O -1.61130e+01 -1.67401e+01 -4.75660e+00
       H -1.61227e+01 -1.77000e+01 -4.65289e+00
       H -1.55072e+01 -1.67194e+01 -5.50726e+00
       O -2.51510e+01 -1.63059e+01 -3.01671e+01
       H -2.54914e+01 -1.70936e+01 -3.06962e+01
       H -2.53157e+01 -1.67233e+01 -2.92813e+01
       O -2.23056e+01 -7.67919e+00  2.36252e+00
       H -2.29661e+01 -7.69238e+00  1.70881e+00
       H -2.21314e+01 -6.67620e+00  2.51314e+00
       O -1.87297e+01 -2.51396e+01 -1.46977e+01
       H -1.86100e+01 -2.59556e+01 -1.41759e+01
       H -1.82054e+01 -2.54636e+01 -1.54023e+01
       O -1.82606e+01 -1.30349e+01 -1.27304e+01
       H -1.81261e+01 -1.24754e+01 -1.35484e+01
       H -1.89080e+01 -1.36931e+01 -1.30926e+01
       O -2.41706e+01 -1.94267e+01 -1.71236e+01
       H -2.48487e+01 -1.87576e+01 -1.69667e+01
       H -2.34370e+01 -1.87707e+01 -1.70777e+01
       O -2.34183e+01 -2.19464e+01 -1.80744e+01
       H -2.35851e+01 -2.10340e+01 -1.81482e+01
       H -2.24987e+01 -2.19117e+01 -1.78752e+01
       O -2.35303e+01 -1.88546e+01 -1.20127e+01
       H -2.37670e+01 -1.93456e+01 -1.28663e+01
       H -2.44145e+01 -1.90855e+01 -1.15493e+01
       O -1.29104e+01 -2.87311e+01 -2.29671e+01
       H -1.35453e+01 -2.94588e+01 -2.27596e+01
       H -1.27509e+01 -2.88910e+01 -2.39123e+01
       O -6.74204e+00 -2.99872e+01 -1.20910e+01
       H -6.04554e+00 -3.00575e+01 -1.14109e+01
       H -7.51514e+00 -3.04538e+01 -1.17429e+01
       O -1.27658e+01 -1.68439e+01 -2.22030e+01
       H -1.27278e+01 -1.75173e+01 -2.14686e+01
       H -1.35394e+01 -1.72492e+01 -2.26026e+01
       O -5.53613e+00 -1.27237e-01 -6.67917e+00
       H -5.94985e+00 -2.37391e-01 -7.59102e+00
       H -6.08531e+00  2.90786e-01 -6.06139e+00
       O -9.77336e+00 -1.69569e+01 -2.43979e+01
       H -9.24725e+00 -1.68898e+01 -2.52246e+01
       H -1.00957e+01 -1.78482e+01 -2.44329e+01
       O -1.78032e+01 -6.41863e+00 -1.11847e+01
       H -1.86397e+01 -6.30090e+00 -1.06929e+01
       H -1.79958e+01 -6.83128e+00 -1.20168e+01
       O -1.42942e+01 -3.26191e+01 -2.77506e+01
       H -1.50649e+01 -3.26441e+01 -2.83082e+01
       H -1.46454e+01 -3.23079e+01 -2.69229e+01
       O -5.50845e+00 -2.33735e+01 -1.58525e+01
       H -5.38913e+00 -2.40711e+01 -1.51340e+01
       H -6.44965e+00 -2.35696e+01 -1.59800e+01
       O -2.43954e+01 -2.85966e+01 -4.53743e+00
       H -2.38448e+01 -2.83382e+01 -5.22737e+00
       H -2.43713e+01 -2.77209e+01 -4.10476e+00
       O -1.35813e+01 -1.48579e+01 -2.40743e+01
       H -1.32279e+01 -1.53613e+01 -2.32255e+01
       H -1.34150e+01 -1.55855e+01 -2.46620e+01
       O -2.18394e+01 -1.49936e+01 -2.51539e+00
       H -2.22992e+01 -1.48016e+01 -3.37360e+00
       H -2.22770e+01 -1.58709e+01 -2.28134e+00
       O -1.55566e+01 -8.25518e+00 -3.13615e+01
       H -1.64752e+01 -8.35898e+00 -3.10316e+01
       H -1.53365e+01 -9.18378e+00 -3.14678e+01
       O -1.37923e+01 -3.06190e+01 -6.34920e+00
       H -1.37802e+01 -3.13331e+01 -6.96826e+00
       H -1.38371e+01 -3.11720e+01 -5.56978e+00
       O -3.39983e+01 -9.58824e+00 -2.39806e+01
       H -3.34651e+01 -9.25041e+00 -2.32443e+01
       H -3.33703e+01 -1.03993e+01 -2.41728e+01
       O -2.55079e+00 -6.13286e+00 -2.16319e+01
       H -2.54068e+00 -6.96368e+00 -2.21014e+01
       H -3.17300e+00 -6.24002e+00 -2.09242e+01
       O -3.17985e+01 -1.23796e+01 -1.18457e+01
       H -3.26345e+01 -1.17857e+01 -1.18982e+01
       H -3.12186e+01 -1.17357e+01 -1.23982e+01
       O -1.46923e+01 -3.57580e+01 -2.85913e+01
       H -1.41046e+01 -3.52116e+01 -2.79987e+01
       H -1.43457e+01 -3.66480e+01 -2.83330e+01
       O -1.85688e+01 -1.77282e+01 -1.89161e+01
       H -1.85887e+01 -1.83740e+01 -1.82124e+01
       H -1.81898e+01 -1.69987e+01 -1.83748e+01
       O -6.97575e+00  1.23733e+01 -4.19648e+00
       H -7.71318e+00  1.30142e+01 -4.23768e+00
       H -6.37840e+00  1.28250e+01 -3.58339e+00
       O -1.61373e+01  2.10258e+00 -1.32624e+00
       H -1.58990e+01  2.81832e+00 -6.66386e-01
       H -1.63308e+01  2.58195e+00 -2.09465e+00
       O -1.39126e+01 -1.54811e+01 -9.06069e+00
       H -1.29844e+01 -1.52583e+01 -8.95232e+00
       H -1.40232e+01 -1.55850e+01 -1.00153e+01
       O -9.18075e+00 -1.77452e+01 -1.38831e+01
       H -8.29425e+00 -1.82218e+01 -1.39404e+01
       H -9.70116e+00 -1.85072e+01 -1.41869e+01
       O  2.49211e+00 -6.58988e-01 -2.97996e+01
       H  2.38536e+00 -8.99340e-01 -3.07981e+01
       H  1.70169e+00 -9.22348e-01 -2.94273e+01
       O -1.44893e+00 -3.12658e+01 -1.41576e+01
       H -1.11831e+00 -3.15162e+01 -1.32536e+01
       H -8.81879e-01 -3.18743e+01 -1.46945e+01
       O  2.13633e+00 -1.15206e+00 -1.14442e+01
       H  2.79911e+00 -8.93900e-01 -1.20932e+01
       H  2.25104e+00 -2.10455e+00 -1.14097e+01
       O -2.66113e+01 -1.78545e+01 -1.31260e+01
       H -2.61051e+01 -1.86709e+01 -1.28854e+01
       H -2.72895e+01 -1.83930e+01 -1.34986e+01
       O -1.21638e+01 -1.61162e+01 -1.85160e+01
       H -1.12260e+01 -1.58674e+01 -1.86856e+01
       H -1.21868e+01 -1.70276e+01 -1.87911e+01
       O -1.57973e+01 -2.27601e+01 -2.63493e+01
       H -1.61369e+01 -2.19797e+01 -2.67980e+01
       H -1.66035e+01 -2.31901e+01 -2.59227e+01
       O -1.67600e+01 -1.30667e+01  1.18225e+00
       H -1.64075e+01 -1.36254e+01  4.46904e-01
       H -1.65808e+01 -1.37768e+01  1.87293e+00
       O -1.68109e+01 -3.04792e+01 -8.78995e+00
       H -1.60353e+01 -3.03067e+01 -8.23627e+00
       H -1.65987e+01 -3.13928e+01 -8.92269e+00
       O -6.48262e+00 -7.09494e+00  6.28446e+00
       H -5.69212e+00 -6.60596e+00  5.99858e+00
       H -6.22017e+00 -7.17442e+00  7.20854e+00
       O -7.74808e-01 -1.10609e+01 -2.97557e+01
       H -2.75065e-01 -1.15392e+01 -3.04473e+01
       H -1.32751e+00 -1.18271e+01 -2.93976e+01
       O -6.25529e+00 -2.60981e+01 -2.04931e+01
       H -6.28668e+00 -2.65135e+01 -1.95906e+01
       H -5.37069e+00 -2.64456e+01 -2.07863e+01
       O -2.36644e+01 -1.29764e+01 -8.95434e+00
       H -2.41139e+01 -1.29095e+01 -8.06155e+00
       H -2.38274e+01 -1.39512e+01 -9.06608e+00
       O -5.69858e+00 -9.49463e+00 -1.44042e+01
       H -6.36580e+00 -8.92342e+00 -1.39259e+01
       H -6.07600e+00 -1.03402e+01 -1.41798e+01
       O -2.15479e+01 -5.31227e+01 -2.34849e+01
       H -2.08549e+01 -5.36949e+01 -2.31490e+01
       H -2.23706e+01 -5.36389e+01 -2.35844e+01
       O -1.87140e+01 -1.63963e+01 -4.30902e+01
       H -1.85100e+01 -1.72678e+01 -4.27054e+01
       H -1.92155e+01 -1.60014e+01 -4.22912e+01
       O -8.01098e+00 -9.89878e+00 -3.42641e+01
       H -8.76263e+00 -9.98701e+00 -3.47962e+01
       H -7.44514e+00 -9.46626e+00 -3.48833e+01
       O -2.89436e+01 -1.84428e+01 -7.03869e+00
       H -2.95711e+01 -1.77662e+01 -6.60280e+00
       H -2.90879e+01 -1.82772e+01 -7.97117e+00
       O -1.29833e+01 -7.47321e+00 -1.18956e+01
       H -1.29889e+01 -8.25250e+00 -1.25234e+01
       H -1.31015e+01 -7.91259e+00 -1.10162e+01
       O -1.29372e+01 -1.87310e+01 -1.55683e+01
       H -1.38698e+01 -1.87348e+01 -1.56074e+01
       H -1.26307e+01 -1.78260e+01 -1.54475e+01
       O -8.22132e-01 -4.85280e+00 -1.01325e+00
       H -4.67483e-01 -4.13504e+00 -1.60685e+00
       H -7.20347e-01 -4.49808e+00 -1.74072e-01
       O -5.01559e+00  7.21564e-01  2.45980e+00
       H -4.46585e+00  1.09551e+00  1.79657e+00
       H -4.61831e+00 -1.35553e-01  2.51921e+00
       O -1.62701e+00 -6.18901e+00 -7.61579e+00
       H -2.47940e+00 -5.80810e+00 -7.88744e+00
       H -1.56663e+00 -5.96684e+00 -6.68470e+00
       O -1.28819e+01 -7.42551e-01 -6.05683e+00
       H -1.21891e+01 -1.40202e+00 -6.10293e+00
       H -1.36349e+01 -1.24774e+00 -6.43391e+00
       O -1.04658e+01 -6.89064e-01 -8.89647e+00
       H -1.05921e+01 -1.38132e+00 -8.25033e+00
       H -9.53246e+00 -8.08835e-01 -9.09546e+00
       O -1.40224e+01 -2.18039e+01 -5.72651e+00
       H -1.34852e+01 -2.14625e+01 -6.45887e+00
       H -1.42900e+01 -2.09836e+01 -5.23032e+00
       O -1.00527e+01 -2.90989e+01 -2.84139e+01
       H -1.08068e+01 -2.96394e+01 -2.86947e+01
       H -1.03275e+01 -2.81964e+01 -2.86707e+01
       O -2.10393e+01 -2.81724e+01 -1.34084e+01
       H -2.09861e+01 -2.89469e+01 -1.28210e+01
       H -2.01577e+01 -2.78111e+01 -1.35108e+01
       O -1.40197e+01 -3.21489e+01 -4.13919e+00
       H -1.35261e+01 -3.29759e+01 -4.16083e+00
       H -1.49177e+01 -3.25056e+01 -4.26773e+00
       O  2.07536e+00  5.95863e+00 -4.44194e+00
       H  1.15233e+00  5.69158e+00 -4.18245e+00
       H  2.37503e+00  5.12008e+00 -4.85976e+00
       O -1.42316e+01 -3.09316e+01 -2.22617e+01
       H -1.48366e+01 -3.07148e+01 -2.15191e+01
       H -1.39490e+01 -3.18304e+01 -2.20452e+01
       O -4.06016e+00 -7.99283e+00 -3.07421e+01
       H -4.01627e+00 -8.74309e+00 -3.14020e+01
       H -3.85213e+00 -8.45836e+00 -2.98700e+01
       O -2.55746e+01 -2.22966e+01 -9.42249e+00
       H -2.58105e+01 -2.32289e+01 -9.55822e+00
       H -2.46337e+01 -2.24808e+01 -9.17330e+00
       O -1.04948e+01 -3.91208e+01 -2.49059e+01
       H -1.08365e+01 -3.96354e+01 -2.56090e+01
       H -1.11775e+01 -3.92633e+01 -2.42550e+01
       O -6.20003e+00 -2.13358e+01 -1.06534e+01
       H -6.67151e+00 -2.15489e+01 -9.82056e+00
       H -6.29246e+00 -2.03812e+01 -1.06730e+01
       O -5.46877e+00 -1.50350e+01 -1.27736e+01
       H -6.43792e+00 -1.52023e+01 -1.27137e+01
       H -5.09829e+00 -1.59120e+01 -1.29360e+01
       O -1.48686e+01 -3.55567e+01 -2.25476e+00
       H -1.39924e+01 -3.57948e+01 -1.90531e+00
       H -1.47474e+01 -3.54345e+01 -3.21035e+00
       O -3.01699e+01 -1.05263e+01 -1.32209e+01
       H -3.01223e+01 -9.86726e+00 -1.24587e+01
       H -2.98655e+01 -9.93183e+00 -1.38459e+01
       O -2.37907e+01 -2.38996e+01 -2.27941e+01
       H -2.42456e+01 -2.47759e+01 -2.29174e+01
       H -2.28777e+01 -2.42188e+01 -2.25577e+01
       O -2.06808e+01 -3.44702e+00 -2.62829e+01
       H -2.11589e+01 -3.30109e+00 -2.70983e+01
       H -2.03168e+01 -4.33327e+00 -2.63920e+01
       O -2.29780e+01 -1.36715e+01 -1.93757e+01
       H -2.26188e+01 -1.34286e+01 -1.85280e+01
       H -2.34007e+01 -1.45238e+01 -1.91601e+01
       O -1.76023e+01 -1.69204e+01 -2.17251e+00
       H -1.71708e+01 -1.71572e+01 -3.02997e+00
       H -1.85299e+01 -1.70612e+01 -2.33973e+00
       O -1.83094e+00 -2.18950e+01 -1.09593e+01
       H -2.64633e+00 -2.17021e+01 -1.14602e+01
       H -1.22739e+00 -2.15866e+01 -1.16483e+01
       O -2.33647e+01 -2.49755e+01 -2.80249e+01
       H -2.34734e+01 -2.59519e+01 -2.78684e+01
       H -2.27757e+01 -2.47499e+01 -2.72958e+01
       O -1.59424e+01 -2.08675e+01 -2.23020e+01
       H -1.54247e+01 -2.14778e+01 -2.28599e+01
       H -1.56487e+01 -2.11612e+01 -2.14322e+01
       O -2.49691e+01 -3.07976e+01 -3.21939e+00
       H -2.50983e+01 -3.00233e+01 -3.85550e+00
       H -2.40195e+01 -3.07050e+01 -3.08080e+00
       O -2.68582e+01 -2.97865e+01 -3.52282e+01
       H -2.60819e+01 -2.92340e+01 -3.51852e+01
       H -2.75494e+01 -2.91666e+01 -3.54402e+01
       O -4.16489e+00 -1.46015e+01  1.04834e+01
       H -3.98611e+00 -1.47994e+01  1.14324e+01
       H -4.61131e+00 -1.53751e+01  1.02975e+01
       O -3.65333e+01 -7.16880e+00 -6.87158e+00
       H -3.62511e+01 -8.02060e+00 -7.13861e+00
       H -3.74715e+01 -7.30023e+00 -7.04826e+00
       O -1.28526e+01 -1.91731e+01 -5.54837e+00
       H -1.20439e+01 -1.87088e+01 -5.32815e+00
       H -1.28351e+01 -1.92686e+01 -6.53408e+00
       O -2.25799e+01 -2.15845e+01 -2.89935e+01
       H -2.21466e+01 -2.06780e+01 -2.92722e+01
       H -2.18206e+01 -2.21681e+01 -2.92453e+01
       O -8.36826e+00 -2.43418e+01 -8.80987e+00
       H -7.61669e+00 -2.40710e+01 -9.39088e+00
       H -7.75552e+00 -2.47609e+01 -8.18216e+00
       O -1.07218e+01 -1.90987e+01 -1.81789e+01
       H -1.05302e+01 -1.93528e+01 -1.72182e+01
       H -9.82091e+00 -1.88065e+01 -1.83580e+01
       O -2.00821e+01  9.80675e+00 -1.21659e+01
       H -1.92858e+01  9.94798e+00 -1.27194e+01
       H -1.96549e+01  9.63539e+00 -1.12663e+01
       O -1.14715e+01 -2.95132e+01 -2.04990e+01
       H -1.19479e+01 -2.91267e+01 -2.12141e+01
       H -1.12848e+01 -3.04375e+01 -2.07970e+01
       O -1.46173e+01 -2.13928e+01 -3.40699e+01
       H -1.47556e+01 -2.22660e+01 -3.35554e+01
       H -1.37329e+01 -2.11176e+01 -3.37184e+01
       O -9.87393e+00 -2.69596e+01 -9.89974e+00
       H -9.05088e+00 -2.73741e+01 -9.75688e+00
       H -9.62064e+00 -2.62037e+01 -1.03841e+01
       O -1.56307e+01 -4.47942e+00 -1.08423e+01
       H -1.61229e+01 -3.78393e+00 -1.13036e+01
       H -1.63366e+01 -5.18727e+00 -1.08153e+01
       O -2.14195e+01 -2.48354e+01 -3.43494e+01
       H -2.06065e+01 -2.53114e+01 -3.44985e+01
       H -2.17699e+01 -2.54861e+01 -3.37026e+01
       O -3.71681e+01 -2.57924e+01 -1.63585e+01
       H -3.72099e+01 -2.66577e+01 -1.60048e+01
       H -3.69900e+01 -2.60517e+01 -1.72890e+01
       O -2.22453e+01 -2.08471e+01  1.07749e+01
       H -2.27000e+01 -2.12609e+01  1.15664e+01
       H -2.17368e+01 -2.16644e+01  1.04755e+01
       O -9.88113e+00 -1.37955e+01 -2.91042e+00
       H -1.03658e+01 -1.33989e+01 -3.68861e+00
       H -9.27841e+00 -1.30504e+01 -2.60456e+00
       O -1.12070e+01 -1.95719e+01 -1.02806e+01
       H -1.13916e+01 -2.05140e+01 -1.05557e+01
       H -1.03439e+01 -1.95765e+01 -9.80855e+00
       O  5.28822e+00 -1.06833e+01  1.86929e+01
       H  5.62856e+00 -1.02059e+01  1.94259e+01
       H  5.46978e+00 -1.01264e+01  1.79246e+01
       O -1.19504e+01  1.12176e+00 -1.02215e+01
       H -1.17537e+01  2.09047e+00 -1.00149e+01
       H -1.11365e+01  6.55929e-01 -9.92581e+00
       O -1.24994e-01  9.87473e+00 -2.75309e+00
       H -8.90093e-01  9.38226e+00 -3.12998e+00
       H -4.67674e-01  1.03482e+01 -1.97030e+00
       O -1.46306e+01 -1.08118e+01 -3.31024e+01
       H -1.43298e+01 -1.16945e+01 -3.33279e+01
       H -1.55597e+01 -1.09662e+01 -3.28312e+01
       O -5.52846e+00 -1.05836e+01 -2.58310e+01
       H -4.92837e+00 -1.11432e+01 -2.63657e+01
       H -5.70995e+00 -1.11229e+01 -2.50698e+01
       O -1.43093e+01 -1.28014e+01 -2.76178e+01
       H -1.42497e+01 -1.32557e+01 -2.84740e+01
       H -1.33723e+01 -1.26430e+01 -2.73874e+01
       O -1.88197e+01 -2.96375e+01 -2.76579e+01
       H -1.92396e+01 -3.04005e+01 -2.80163e+01
       H -1.95997e+01 -2.90035e+01 -2.76423e+01
       O -5.87099e+00 -2.36799e+00 -4.88460e+00
       H -6.23174e+00 -3.05026e+00 -5.45334e+00
       H -5.49018e+00 -1.68495e+00 -5.51175e+00
       O -1.69341e+01 -2.20953e+01 -2.20971e+00
       H -1.64520e+01 -2.12484e+01 -2.17160e+00
       H -1.65209e+01 -2.24832e+01 -1.42435e+00
       O -5.53593e+00 -2.66028e+00 -1.63891e+01
       H -5.07159e+00 -2.73012e+00 -1.55446e+01
       H -6.31420e+00 -3.21430e+00 -1.62497e+01
       O -7.44495e+00 -9.41081e+00 -7.92351e+00
       H -7.79797e+00 -8.70206e+00 -8.49516e+00
       H -6.64451e+00 -9.76267e+00 -8.40474e+00
       O  1.27889e+01  9.78400e+00 -3.10948e+01
       H  1.20754e+01  9.53853e+00 -3.16633e+01
       H  1.35678e+01  9.41628e+00 -3.15582e+01
       O -2.12041e+01 -1.56934e+01 -9.66521e+00
       H -2.16689e+01 -1.63339e+01 -9.16626e+00
       H -2.18538e+01 -1.52974e+01 -1.03268e+01
       O -2.16639e+01 -2.75180e+01 -8.82064e+00
       H -2.08822e+01 -2.72848e+01 -9.37480e+00
       H -2.23517e+01 -2.77585e+01 -9.43435e+00
       O -8.93989e+00 -2.06884e+01 -4.29255e+00
       H -9.18906e+00 -1.97503e+01 -4.21138e+00
       H -9.27074e+00 -2.09175e+01 -5.17187e+00
       O -7.20347e+00 -1.87132e+01 -1.83077e+01
       H -7.62325e+00 -1.95477e+01 -1.85654e+01
       H -7.40595e+00 -1.81999e+01 -1.91281e+01
       O -1.54949e+01 -3.76913e+00 -1.74461e+01
       H -1.52113e+01 -4.70678e+00 -1.70570e+01
       H -1.49695e+01 -3.24555e+00 -1.68212e+01
       O -1.79998e+01 -2.73455e+01 -2.40235e+01
       H -1.80547e+01 -2.82781e+01 -2.44073e+01
       H -1.88585e+01 -2.68651e+01 -2.42022e+01
       O -1.30021e+01 -1.27336e+01 -7.36762e+00
       H -1.28400e+01 -1.26344e+01 -8.30235e+00
       H -1.21723e+01 -1.23207e+01 -7.06483e+00
       O -1.63428e+01 -4.20657e+01 -3.99186e+01
       H -1.72309e+01 -4.21629e+01 -4.02805e+01
       H -1.64620e+01 -4.12809e+01 -3.93010e+01
       O -1.96031e+01 -1.29184e+01 -1.02984e+01
       H -2.04932e+01 -1.32200e+01 -1.05627e+01
       H -1.91592e+01 -1.31113e+01 -1.11687e+01
       O -1.47013e+01 -3.40717e+01 -2.37458e+01
       H -1.39509e+01 -3.39481e+01 -2.43306e+01
       H -1.53796e+01 -3.44410e+01 -2.42784e+01
       O -1.27054e+01 -1.85107e+01 -1.23045e+01
       H -1.31455e+01 -1.93456e+01 -1.26254e+01
       H -1.20412e+01 -1.89268e+01 -1.16730e+01
       O -2.44338e+01 -1.98113e+01 -2.70079e+01
       H -2.51364e+01 -2.04156e+01 -2.72810e+01
       H -2.37471e+01 -2.00802e+01 -2.76473e+01
       O -1.99058e+01 -1.66023e+01 -3.51476e+00
       H -2.02422e+01 -1.57816e+01 -3.20421e+00
       H -2.07214e+01 -1.71180e+01 -3.55288e+00
       O -6.17629e+00 -2.88020e+01 -4.04008e+01
       H -5.21949e+00 -2.88333e+01 -4.03789e+01
       H -6.32930e+00 -2.78333e+01 -4.01441e+01
       O -8.30072e-02 -1.98316e+01 -1.74037e+01
       H  5.17861e-01 -1.92171e+01 -1.69699e+01
       H  1.63092e-02 -1.94637e+01 -1.82741e+01
       O -1.61015e+01 -1.04428e+01 -1.59584e+01
       H -1.60560e+01 -1.09066e+01 -1.68530e+01
       H -1.60432e+01 -9.50442e+00 -1.61928e+01
       O -1.97270e+01 -6.90452e+00 -2.14619e+01
       H -2.03140e+01 -6.65968e+00 -2.06869e+01
       H -1.97097e+01 -7.87499e+00 -2.13709e+01
       O -7.32345e+00 -6.49688e-01 -1.75050e+01
       H -7.95796e+00 -1.27025e+00 -1.78896e+01
       H -6.70255e+00 -1.24152e+00 -1.69572e+01
       O -4.80269e+00 -4.76199e+00  6.21914e-01
       H -4.37885e+00 -5.61391e+00  3.39561e-01
       H -5.65802e+00 -5.12075e+00  8.91172e-01
       O -2.07306e+01 -1.44893e+01  6.97509e-01
       H -2.14464e+01 -1.50300e+01  4.29878e-01
       H -1.99991e+01 -1.51488e+01  6.18894e-01
       O -1.68133e+01 -1.73582e+01 -1.38715e+01
       H -1.72242e+01 -1.69838e+01 -1.30544e+01
       H -1.61338e+01 -1.66381e+01 -1.40201e+01
       O -2.63355e+01 -1.07787e+01 -1.36392e+01
       H -2.62929e+01 -1.16117e+01 -1.31950e+01
       H -2.57882e+01 -1.02775e+01 -1.30510e+01
       O -6.93601e+00 -8.65789e+00 -5.07902e+00
       H -7.80875e+00 -8.58435e+00 -4.75463e+00
       H -7.05901e+00 -9.04388e+00 -5.92385e+00
       O -1.92365e+01 -2.10728e+01 -4.26721e+01
       H -1.83723e+01 -2.04881e+01 -4.26915e+01
       H -1.91682e+01 -2.14643e+01 -4.18106e+01
       O -1.49361e+01 -2.40060e+01 -7.43401e+00
       H -1.56035e+01 -2.34827e+01 -7.99992e+00
       H -1.45517e+01 -2.33481e+01 -6.81612e+00
       O -5.50540e+00 -9.71940e+00 -2.05623e+01
       H -6.14913e+00 -1.02112e+01 -1.99726e+01
       H -4.88335e+00 -1.03651e+01 -2.09994e+01
       O -4.66046e+01 -1.24414e+01  7.11434e+00
       H -4.62384e+01 -1.32770e+01  7.51080e+00
       H -4.73613e+01 -1.27856e+01  6.61089e+00
       O -4.74484e+00 -1.54265e+01 -8.74534e+00
       H -4.40026e+00 -1.61472e+01 -9.28273e+00
       H -4.19200e+00 -1.54736e+01 -7.98128e+00
       O -1.99540e+01 -1.53965e+01  1.80903e+01
       H -2.05071e+01 -1.61144e+01  1.77325e+01
       H -1.96246e+01 -1.50121e+01  1.72980e+01
       O -8.76394e+00 -3.08894e+01 -3.41791e+01
       H -7.85730e+00 -3.13014e+01 -3.42698e+01
       H -8.79717e+00 -3.05711e+01 -3.32601e+01
       O -1.81206e+01 -2.29684e+01 -6.62826e+00
       H -1.79053e+01 -2.20231e+01 -6.58195e+00
       H -1.75506e+01 -2.33395e+01 -5.88324e+00
       O -1.16394e+01 -1.73085e+01  7.86498e+00
       H -1.25764e+01 -1.69869e+01  7.73781e+00
       H -1.12815e+01 -1.64228e+01  8.21410e+00
       O -1.40623e+01 -8.76509e+00 -5.93556e+00
       H -1.48287e+01 -8.35993e+00 -5.43576e+00
       H -1.32283e+01 -8.20764e+00 -5.84558e+00
       O -3.10909e+01 -1.36476e+01 -1.55335e+00
       H -3.05810e+01 -1.29265e+01 -1.96245e+00
       H -3.09821e+01 -1.35037e+01 -5.75625e-01
       O -1.40991e+01 -2.28459e+01 -2.40036e+01
       H -1.39335e+01 -2.38146e+01 -2.39571e+01
       H -1.48254e+01 -2.27070e+01 -2.47368e+01
       O -1.23235e+01 -6.21049e+00  1.89612e+00
       H -1.24481e+01 -6.69254e+00  2.68393e+00
       H -1.32590e+01 -5.87383e+00  1.63606e+00
       O -1.14961e+01 -2.93413e+01 -1.46437e+00
       H -1.18900e+01 -3.00701e+01 -9.45730e-01
       H -1.12112e+01 -2.88847e+01 -6.86535e-01
       O -1.07000e+01 -3.36345e+01 -6.60771e+00
       H -1.05313e+01 -3.34637e+01 -7.57526e+00
       H -1.16369e+01 -3.38387e+01 -6.57669e+00
       O -5.79407e+00 -8.12581e+00 -8.54830e-01
       H -5.77720e+00 -7.47946e+00 -7.97720e-02
       H -5.88539e+00 -8.98061e+00 -3.95125e-01
       O -2.40758e+01 -2.34253e+01 -4.10657e+00
       H -2.44932e+01 -2.32844e+01 -3.25794e+00
       H -2.32381e+01 -2.30068e+01 -3.93232e+00
       O -5.36103e-01 -3.77210e+00  1.79638e+00
       H -5.42481e-01 -4.69445e+00  2.15120e+00
       H -1.50394e+00 -3.49292e+00  2.05315e+00
       O -1.50514e+01 -2.67215e+01 -6.30673e+00
       H -1.51230e+01 -2.58710e+01 -6.62017e+00
       H -1.44124e+01 -2.71409e+01 -6.90948e+00
       O -2.13192e+01 -2.15171e+01 -1.17499e+01
       H -2.20716e+01 -2.18135e+01 -1.22885e+01
       H -2.06976e+01 -2.22398e+01 -1.19624e+01
       O -2.01787e+01 -1.80375e+01 -7.51911e+00
       H -1.92226e+01 -1.80579e+01 -7.69993e+00
       H -2.04976e+01 -1.86536e+01 -8.27455e+00
       O -6.51331e+00 -5.77099e+00 -2.11246e+00
       H -7.31270e+00 -5.85980e+00 -2.67098e+00
       H -6.30455e+00 -6.64110e+00 -1.83163e+00
       O -2.95125e+00 -1.11246e+01 -1.48859e+01
       H -2.01740e+00 -1.11273e+01 -1.46265e+01
       H -3.41320e+00 -1.17646e+01 -1.43871e+01
       O -2.12075e+01 -2.37155e+01 -1.57599e+01
       H -2.18367e+01 -2.42732e+01 -1.63418e+01
       H -2.06196e+01 -2.43766e+01 -1.53935e+01
       O -2.78555e+00 -1.29542e+01 -5.36848e+00
       H -1.97320e+00 -1.24214e+01 -5.61126e+00
       H -2.92087e+00 -1.28704e+01 -4.43299e+00
       O -8.54089e+00 -2.38380e+01 -1.56230e+01
       H -8.13585e+00 -2.46354e+01 -1.58999e+01
       H -9.12125e+00 -2.41838e+01 -1.49077e+01
       O -8.30296e+00 -1.28946e+01 -2.16098e+01
       H -8.45226e+00 -1.23907e+01 -2.08310e+01
       H -8.99250e+00 -1.25373e+01 -2.21743e+01
       O -1.86871e+01  2.17203e+00 -4.66501e+00
       H -1.78733e+01  2.53744e+00 -4.22696e+00
       H -1.92579e+01  2.05564e+00 -3.87406e+00
       O -8.43178e+00 -1.14058e+00 -1.07821e+01
       H -7.92458e+00 -1.86382e+00 -1.12475e+01
       H -9.04228e+00 -8.37996e-01 -1.14521e+01
       O -2.19764e+01  1.43529e+00 -7.38140e+00
       H -2.12130e+01  8.57987e-01 -7.02995e+00
       H -2.15269e+01  1.90190e+00 -8.09126e+00
       O -9.57233e+00 -2.31363e+00 -1.81421e+01
       H -9.93052e+00 -3.15053e+00 -1.84347e+01
       H -1.01897e+01 -1.59492e+00 -1.85027e+01
       O -1.94531e+01 -2.15704e+00 -6.05464e+00
       H -1.97418e+01 -1.93431e+00 -5.18591e+00
       H -1.93891e+01 -1.20614e+00 -6.31336e+00
       O -1.85078e+01 -2.33594e+01  6.10761e-01
       H -1.84789e+01 -2.39505e+01 -1.84020e-01
       H -1.79422e+01 -2.38916e+01  1.20372e+00
       O -2.69178e+00 -5.27367e-01  3.86823e-01
       H -3.63468e+00 -8.07688e-01  2.50465e-01
       H -2.63920e+00 -6.90545e-01  1.36603e+00
       O -2.52110e+01 -1.74842e+01 -7.69015e+00
       H -2.46645e+01 -1.82479e+01 -7.97551e+00
       H -2.59157e+01 -1.79109e+01 -7.05104e+00
       O -5.33214e+00 -2.06762e+01 -2.98459e+01
       H -6.07393e+00 -2.13069e+01 -2.96694e+01
       H -5.16266e+00 -2.07480e+01 -3.08103e+01
       O -1.07143e+00 -1.32975e+01 -1.44422e+01
       H -1.55244e+00 -1.36044e+01 -1.52427e+01
       H -6.26038e-01 -1.25352e+01 -1.47999e+01
       O -8.95388e+00 -1.81567e+01  2.76546e+00
       H -9.66491e+00 -1.76345e+01  2.27612e+00
       H -9.51923e+00 -1.82729e+01  3.62854e+00
       O -2.46210e+01 -1.52235e+01 -9.98650e+00
       H -2.45520e+01 -1.53746e+01 -1.09437e+01
       H -2.49282e+01 -1.60363e+01 -9.63257e+00
       O -1.28265e+01 -1.10973e+01 -2.11773e+01
       H -1.36979e+01 -1.08302e+01 -2.13654e+01
       H -1.27251e+01 -1.15309e+01 -2.20796e+01
       O -2.44192e+01 -1.62317e+01 -1.31227e+01
       H -2.52550e+01 -1.67473e+01 -1.33233e+01
       H -2.38304e+01 -1.70049e+01 -1.30335e+01
       O -9.01217e+00 -2.12874e+01 -1.28961e+01
       H -9.74786e+00 -2.11120e+01 -1.22499e+01
       H -9.18540e+00 -2.22013e+01 -1.31608e+01
       O -1.97841e+01  5.47723e+00 -1.80826e+01
       H -2.03419e+01  5.70704e+00 -1.73669e+01
       H -1.97176e+01  6.36707e+00 -1.84565e+01
       O  1.01836e+00 -1.75784e+01 -1.61410e+01
       H  1.13732e+00 -1.67353e+01 -1.57087e+01
       H  1.08962e+00 -1.74143e+01 -1.71060e+01
       O -8.30008e+00 -3.19279e+01 -7.62314e+00
       H -8.80627e+00 -3.23559e+01 -8.34264e+00
       H -8.97814e+00 -3.12434e+01 -7.36291e+00
       O -1.99966e+01 -1.67621e+01  7.41547e+00
       H -2.01708e+01 -1.60963e+01  8.04499e+00
       H -1.92554e+01 -1.72036e+01  7.82106e+00
       O -1.22080e+01 -2.46537e+01 -1.19506e+01
       H -1.24564e+01 -2.53598e+01 -1.25341e+01
       H -1.27411e+01 -2.47577e+01 -1.11664e+01
       O -6.91954e+00 -1.78797e+01 -2.09668e+01
       H -7.25166e+00 -1.85660e+01 -2.15716e+01
       H -6.62945e+00 -1.71863e+01 -2.15328e+01
       O -3.21717e+01 -2.98263e+01 -1.90187e+01
       H -3.12464e+01 -2.99607e+01 -1.88797e+01
       H -3.25318e+01 -2.97363e+01 -1.80880e+01
       O -3.82760e+01 -1.78670e+01 -7.51380e+00
       H -3.90211e+01 -1.83630e+01 -7.97132e+00
       H -3.86124e+01 -1.75324e+01 -6.67736e+00
       O -4.40185e-01 -8.16938e+00  8.47943e-01
       H  8.77905e-02 -8.89484e+00  1.16841e+00
       H -1.26184e+00 -8.66784e+00  6.33439e-01
       O -1.56686e+01 -2.06336e+01 -4.03579e+01
       H -1.54462e+01 -2.04959e+01 -3.94158e+01
       H -1.47467e+01 -2.07822e+01 -4.06835e+01
       O -1.38992e+01 -2.56262e+01 -2.63178e+01
       H -1.33459e+01 -2.56396e+01 -2.55071e+01
       H -1.47875e+01 -2.55774e+01 -2.59422e+01
       O -2.26487e+00 -9.56532e+00  3.04676e+00
       H -1.64019e+00 -9.99536e+00  2.36953e+00
       H -3.06445e+00 -1.01239e+01  2.85792e+00
       O -3.69154e+01 -1.00769e+01 -7.81292e+00
       H -3.67656e+01 -1.02338e+01 -6.84417e+00
       H -3.60476e+01 -1.03457e+01 -8.25718e+00
       O -2.55888e+01 -1.22049e+01 -3.67113e+00
       H -2.48661e+01 -1.19974e+01 -2.99098e+00
       H -2.61463e+01 -1.27862e+01 -3.09629e+00
       O -2.54568e+01  9.33777e+00 -1.35098e+01
       H -2.64329e+01  9.35209e+00 -1.36821e+01
       H -2.52081e+01  8.67849e+00 -1.42109e+01
       O  2.79936e-01 -2.73071e+00 -2.26564e+00
       H  1.15199e+00 -2.34601e+00 -2.47225e+00
       H  8.94909e-02 -3.02862e+00 -3.17215e+00
       O -5.14893e+00 -1.64557e+00  4.48592e-01
       H -5.00395e+00 -2.47250e+00  8.43653e-01
       H -6.11718e+00 -1.74673e+00  4.01728e-01
       O -1.40602e+01 -1.62256e+01 -1.15714e+01
       H -1.36841e+01 -1.54607e+01 -1.20877e+01
       H -1.35166e+01 -1.69940e+01 -1.19457e+01
       O -4.17796e+01 -1.84684e+01  6.55974e-01
       H -4.27129e+01 -1.86727e+01  4.16022e-01
       H -4.17369e+01 -1.87663e+01  1.59858e+00
       O -1.94801e+01  4.87223e+00 -2.65449e+01
       H -1.97209e+01  4.39442e+00 -2.57465e+01
       H -1.85499e+01  5.01602e+00 -2.64341e+01
       O -2.39504e+01 -9.95327e+00 -2.05243e+01
       H -2.44601e+01 -1.01679e+01 -2.13377e+01
       H -2.46762e+01 -9.93468e+00 -1.98977e+01
       O -5.73814e+00 -1.39591e+01  5.07944e+00
       H -6.38836e+00 -1.45588e+01  5.50691e+00
       H -5.45043e+00 -1.34255e+01  5.87120e+00
       O -9.15744e+00 -8.41279e+00 -2.02348e+01
       H -8.40597e+00 -8.17269e+00 -2.08328e+01
       H -8.81059e+00 -8.35594e+00 -1.93733e+01
       O -1.67407e+01 -7.91886e+00 -4.16681e+00
       H -1.67761e+01 -6.93769e+00 -4.28598e+00
       H -1.75270e+01 -8.27131e+00 -4.67410e+00
       O -1.54429e+01 -1.95846e+01 -4.39346e+00
       H -1.47035e+01 -1.90262e+01 -4.72703e+00
       H -1.51427e+01 -1.97704e+01 -3.50375e+00
       O -2.52411e+01 -7.29208e-01 -1.65366e+01
       H -2.54886e+01  1.46635e-01 -1.61466e+01
       H -2.58094e+01 -1.40671e+00 -1.61656e+01
       O -3.19301e+01 -2.70759e+01 -9.19624e+00
       H -3.19451e+01 -2.80577e+01 -9.14541e+00
       H -3.10990e+01 -2.69152e+01 -9.66184e+00
       O -1.53065e+01 -2.37042e+01 -1.31312e+01
       H -1.60917e+01 -2.32844e+01 -1.34685e+01
       H -1.56354e+01 -2.43051e+01 -1.24229e+01
       O -7.76379e+00 -2.13278e+01 -3.38297e+01
       H -8.33031e+00 -2.07569e+01 -3.43469e+01
       H -7.79806e+00 -2.07883e+01 -3.30145e+01
       O -1.44768e+01 -2.11579e+01 -1.02585e+01
       H -1.38528e+01 -2.13193e+01 -1.10416e+01
       H -1.49883e+01 -2.04301e+01 -1.06372e+01
       O -1.87742e+01 -2.25860e+01 -3.40796e+01
       H -1.96861e+01 -2.26198e+01 -3.36498e+01