4
# CELL(abcABC): 1000.00000  1000.00000  1000.00000    90.00000    90.00000    90.00000  Step:           0  Bead:       0 positions{angstrom}  cell{angstrom}
       O -3.15300e+00  1.06419e+00  3.79573e-01
       H -2.80948e+00  2.11870e-01  7.40189e-02
       H -2.44556e+00  1.68798e+00  5.21056e-01
       H -4.08221e+00  1.27846e+00  6.54515e-02
4
# CELL(abcABC): 1000.00000  1000.00000  1000.00000    90.00000    90.00000    90.00000  Step:           1  Bead:       0 positions{angstrom}  cell{angstrom}
       O -3.15138e+00  1.06440e+00  3.78929e-01
       H -2.81941e+00  2.05762e-01  7.88867e-02
       H -2.44537e+00  1.68747e+00  5.22249e-01
       H -4.09811e+00  1.28179e+00  6.96197e-02
4
# CELL(abcABC): 1000.00000  1000.00000  1000.00000    90.00000    90.00000    90.00000  Step:           2  Bead:       0 positions{angstrom}  cell{angstrom}
       O -3.15005e+00  1.06443e+00  3.78069e-01
       H -2.82981e+00  2.02095e-01  8.55069e-02
       H -2.44334e+00  1.68728e+00  5.23532e-01
       H -4.11089e+00  1.28511e+00  7.53555e-02
4
# CELL(abcABC): 1000.00000  1000.00000  1000.00000    90.00000    90.00000    90.00000  Step:           3  Bead:       0 positions{angstrom}  cell{angstrom}
       O -3.14892e+00  1.06439e+00  3.76936e-01
       H -2.83973e+00  1.99188e-01  9.50465e-02
       H -2.44136e+00  1.68842e+00  5.25547e-01
       H -4.12096e+00  1.28758e+00  8.17907e-02
4
# CELL(abcABC): 1000.00000  1000.00000  1000.00000    90.00000    90.00000    90.00000  Step:           4  Bead:       0 positions{angstrom}  cell{angstrom}
       O -3.14807e+00  1.06434e+00  3.75704e-01
       H -2.84962e+00  1.96523e-01  1.04470e-01
       H -2.43870e+00  1.69029e+00  5.27207e-01
       H -4.12720e+00  1.28917e+00  9.02571e-02
4
# CELL(abcABC): 1000.00000  1000.00000  1000.00000    90.00000    90.00000    90.00000  Step:           5  Bead:       0 positions{angstrom}  cell{angstrom}
       O -3.14739e+00  1.06418e+00  3.74360e-01
       H -2.85976e+00  1.94789e-01  1.14417e-01
       H -2.43691e+00  1.69310e+00  5.29929e-01
       H -4.12956e+00  1.29058e+00  9.89308e-02
4
# CELL(abcABC): 1000.00000  1000.00000  1000.00000    90.00000    90.00000    90.00000  Step:           6  Bead:       0 positions{angstrom}  cell{angstrom}
       O -3.14688e+00  1.06418e+00  3.72926e-01
       H -2.86898e+00  1.93578e-01  1.23990e-01
       H -2.43631e+00  1.69373e+00  5.31658e-01
       H -4.12912e+00  1.29124e+00  1.10382e-01
4
# CELL(abcABC): 1000.00000  1000.00000  1000.00000    90.00000    90.00000    90.00000  Step:           7  Bead:       0 positions{angstrom}  cell{angstrom}
       O -3.14668e+00  1.06420e+00  3.71199e-01
       H -2.87563e+00  1.92009e-01  1.35210e-01
       H -2.43652e+00  1.69322e+00  5.34172e-01
       H -4.12536e+00  1.29299e+00  1.24075e-01
4
# CELL(abcABC): 1000.00000  1000.00000  1000.00000    90.00000    90.00000    90.00000  Step:           8  Bead:       0 positions{angstrom}  cell{angstrom}
       O -3.14684e+00  1.06439e+00  3.69438e-01
       H -2.87993e+00  1.89565e-01  1.45972e-01
       H -2.43638e+00  1.69083e+00  5.36058e-01
       H -4.11866e+00  1.29481e+00  1.39371e-01
4
# CELL(abcABC): 1000.00000  1000.00000  1000.00000    90.00000    90.00000    90.00000  Step:           9  Bead:       0 positions{angstrom}  cell{angstrom}
       O -3.14730e+00  1.06483e+00  3.67474e-01
       H -2.88270e+00  1.85123e-01  1.57960e-01
       H -2.43576e+00  1.68757e+00  5.38590e-01
       H -4.10925e+00  1.29547e+00  1.56021e-01
4
# CELL(abcABC): 1000.00000  1000.00000  1000.00000    90.00000    90.00000    90.00000  Step:          10  Bead:       0 positions{angstrom}  cell{angstrom}
       O -3.14798e+00  1.06535e+00  3.65567e-01
       H -2.88384e+00  1.79575e-01  1.69274e-01
       H -2.43546e+00  1.68396e+00  5.40467e-01
       H -4.09766e+00  1.29631e+00  1.73108e-01
4
# CELL(abcABC): 1000.00000  1000.00000  1000.00000    90.00000    90.00000    90.00000  Step:          11  Bead:       0 positions{angstrom}  cell{angstrom}
       O -3.14882e+00  1.06600e+00  3.63748e-01
       H -2.88332e+00  1.74051e-01  1.79395e-01
       H -2.43686e+00  1.67909e+00  5.42023e-01
       H -4.08347e+00  1.29649e+00  1.90312e-01
4
# CELL(abcABC): 1000.00000  1000.00000  1000.00000    90.00000    90.00000    90.00000  Step:          12  Bead:       0 positions{angstrom}  cell{angstrom}
       O -3.14990e+00  1.06674e+00  3.61961e-01
       H -2.88025e+00  1.68223e-01  1.89340e-01
       H -2.43852e+00  1.67232e+00  5.42728e-01
       H -4.06762e+00  1.29726e+00  2.08019e-01
4
# CELL(abcABC): 1000.00000  1000.00000  1000.00000    90.00000    90.00000    90.00000  Step:          13  Bead:       0 positions{angstrom}  cell{angstrom}
       O -3.15111e+00  1.06746e+00  3.60121e-01
       H -2.87616e+00  1.63579e-01  1.99766e-01
       H -2.43871e+00  1.66515e+00  5.43694e-01
       H -4.05233e+00  1.29766e+00  2.25838e-01
4
# CELL(abcABC): 1000.00000  1000.00000  1000.00000    90.00000    90.00000    90.00000  Step:          14  Bead:       0 positions{angstrom}  cell{angstrom}
       O -3.15236e+00  1.06804e+00  3.58213e-01
       H -2.87013e+00  1.59850e-01  2.10933e-01
       H -2.43795e+00  1.65877e+00  5.44979e-01
       H -4.03935e+00  1.29862e+00  2.43672e-01
4
# CELL(abcABC): 1000.00000  1000.00000  1000.00000    90.00000    90.00000    90.00000  Step:          15  Bead:       0 positions{angstrom}  cell{angstrom}
       O -3.15342e+00  1.06831e+00  3.56059e-01
       H -2.86589e+00  1.57317e-01  2.24649e-01
       H -2.43726e+00  1.65344e+00  5.46871e-01
       H -4.02751e+00  1.30221e+00  2.62257e-01
4
# CELL(abcABC): 1000.00000  1000.00000  1000.00000    90.00000    90.00000    90.00000  Step:          16  Bead:       0 positions{angstrom}  cell{angstrom}
       O -3.15429e+00  1.06826e+00  3.53875e-01
       H -2.86080e+00  1.56332e-01  2.38422e-01
       H -2.43622e+00  1.64998e+00  5.49279e-01
       H -4.01969e+00  1.30744e+00  2.80747e-01
4
# CELL(abcABC): 1000.00000  1000.00000  1000.00000    90.00000    90.00000    90.00000  Step:          17  Bead:       0 positions{angstrom}  cell{angstrom}
       O -3.15477e+00  1.06793e+00  3.51661e-01
       H -2.85549e+00  1.57748e-01  2.52750e-01
       H -2.43586e+00  1.64809e+00  5.51149e-01
       H -4.01774e+00  1.31303e+00  2.99692e-01
4
# CELL(abcABC): 1000.00000  1000.00000  1000.00000    90.00000    90.00000    90.00000  Step:          18  Bead:       0 positions{angstrom}  cell{angstrom}
       O -3.15487e+00  1.06727e+00  3.49426e-01
       H -2.85186e+00  1.61656e-01  2.67480e-01
       H -2.43422e+00  1.64714e+00  5.53288e-01
       H -4.02154e+00  1.32061e+00  3.18287e-01
4
# CELL(abcABC): 1000.00000  1000.00000  1000.00000    90.00000    90.00000    90.00000  Step:          19  Bead:       0 positions{angstrom}  cell{angstrom}
       O -3.15471e+00  1.06647e+00  3.47171e-01
       H -2.84845e+00  1.66435e-01  2.82731e-01
       H -2.43346e+00  1.64641e+00  5.54977e-01
       H -4.02827e+00  1.32932e+00  3.37144e-01
4
# CELL(abcABC): 1000.00000  1000.00000  1000.00000    90.00000    90.00000    90.00000  Step:          20  Bead:       0 positions{angstrom}  cell{angstrom}
       O -3.15424e+00  1.06561e+00  3.44988e-01
       H -2.84549e+00  1.71844e-01  2.96475e-01
       H -2.43391e+00  1.64646e+00  5.57000e-01
       H -4.03815e+00  1.33754e+00  3.56025e-01
4
# CELL(abcABC): 1000.00000  1000.00000  1000.00000    90.00000    90.00000    90.00000  Step:          21  Bead:       0 positions{angstrom}  cell{angstrom}
       O -3.15363e+00  1.06473e+00  3.42916e-01
       H -2.84330e+00  1.76026e-01  3.08753e-01
       H -2.43307e+00  1.64766e+00  5.59965e-01
       H -4.05081e+00  1.34598e+00  3.73679e-01
4
# CELL(abcABC): 1000.00000  1000.00000  1000.00000    90.00000    90.00000    90.00000  Step:          22  Bead:       0 positions{angstrom}  cell{angstrom}
       O -3.15296e+00  1.06387e+00  3.41007e-01
       H -2.84241e+00  1.77850e-01  3.21561e-01
       H -2.43053e+00  1.64947e+00  5.61154e-01
       H -4.06494e+00  1.35601e+00  3.89988e-01
4
# CELL(abcABC): 1000.00000  1000.00000  1000.00000    90.00000    90.00000    90.00000  Step:          23  Bead:       0 positions{angstrom}  cell{angstrom}
       O -3.15226e+00  1.06317e+00  3.39383e-01
       H -2.84147e+00  1.78267e-01  3.33339e-01
       H -2.42771e+00  1.65178e+00  5.62343e-01
       H -4.07978e+00  1.36449e+00  4.02799e-01
4
# CELL(abcABC): 1000.00000  1000.00000  1000.00000    90.00000    90.00000    90.00000  Step:          24  Bead:       0 positions{angstrom}  cell{angstrom}
       O -3.15159e+00  1.06259e+00  3.37889e-01
       H -2.83998e+00  1.75573e-01  3.44538e-01
       H -2.42538e+00  1.65481e+00  5.63191e-01
       H -4.09427e+00  1.37336e+00  4.14463e-01
4
# CELL(abcABC): 1000.00000  1000.00000  1000.00000    90.00000    90.00000    90.00000  Step:          25  Bead:       0 positions{angstrom}  cell{angstrom}
       O -3.15091e+00  1.06234e+00  3.36445e-01
       H -2.83870e+00  1.70098e-01  3.56040e-01
       H -2.42453e+00  1.65646e+00  5.63452e-01
       H -4.10720e+00  1.38111e+00  4.25624e-01
4
# CELL(abcABC): 1000.00000  1000.00000  1000.00000    90.00000    90.00000    90.00000  Step:          26  Bead:       0 positions{angstrom}  cell{angstrom}
       O -3.15027e+00  1.06241e+00  3.35124e-01
       H -2.83777e+00  1.62930e-01  3.66334e-01
       H -2.42459e+00  1.65688e+00  5.62654e-01
       H -4.11816e+00  1.38682e+00  4.37088e-01
4
# CELL(abcABC): 1000.00000  1000.00000  1000.00000    90.00000    90.00000    90.00000  Step:          27  Bead:       0 positions{angstrom}  cell{angstrom}
       O -3.14982e+00  1.06264e+00  3.33986e-01
       H -2.83765e+00  1.56665e-01  3.75422e-01
       H -2.42574e+00  1.65549e+00  5.60629e-01
       H -4.12435e+00  1.39082e+00  4.48088e-01
4
# CELL(abcABC): 1000.00000  1000.00000  1000.00000    90.00000    90.00000    90.00000  Step:          28  Bead:       0 positions{angstrom}  cell{angstrom}
       O -3.14942e+00  1.06299e+00  3.32948e-01
       H -2.83944e+00  1.49662e-01  3.83750e-01
       H -2.42715e+00  1.65341e+00  5.58005e-01
       H -4.12755e+00  1.39427e+00  4.58875e-01
4
# CELL(abcABC): 1000.00000  1000.00000  1000.00000    90.00000    90.00000    90.00000  Step:          29  Bead:       0 positions{angstrom}  cell{angstrom}
       O -3.14917e+00  1.06335e+00  3.32089e-01
       H -2.84158e+00  1.44606e-01  3.89964e-01
       H -2.43001e+00  1.65073e+00  5.54596e-01
       H -4.12640e+00  1.39623e+00  4.69703e-01
4
# CELL(abcABC): 1000.00000  1000.00000  1000.00000    90.00000    90.00000    90.00000  Step:          30  Bead:       0 positions{angstrom}  cell{angstrom}
       O -3.14910e+00  1.06359e+00  3.31358e-01
       H -2.84448e+00  1.42761e-01  3.96158e-01
       H -2.43316e+00  1.64786e+00  5.50945e-01
       H -4.12157e+00  1.39726e+00  4.78762e-01
4
# CELL(abcABC): 1000.00000  1000.00000  1000.00000    90.00000    90.00000    90.00000  Step:          31  Bead:       0 positions{angstrom}  cell{angstrom}
       O -3.14934e+00  1.06363e+00  3.30846e-01
       H -2.84698e+00  1.43466e-01  4.01724e-01
       H -2.43526e+00  1.64641e+00  5.46134e-01
       H -4.11303e+00  1.39735e+00  4.86134e-01
4
# CELL(abcABC): 1000.00000  1000.00000  1000.00000    90.00000    90.00000    90.00000  Step:          32  Bead:       0 positions{angstrom}  cell{angstrom}
       O -3.14977e+00  1.06366e+00  3.30312e-01
       H -2.85151e+00  1.44553e-01  4.07068e-01
       H -2.43606e+00  1.64687e+00  5.42080e-01
       H -4.10098e+00  1.39522e+00  4.93323e-01
4
# CELL(abcABC): 1000.00000  1000.00000  1000.00000    90.00000    90.00000    90.00000  Step:          33  Bead:       0 positions{angstrom}  cell{angstrom}
       O -3.15036e+00  1.06374e+00  3.29824e-01
       H -2.85762e+00  1.46924e-01  4.12806e-01
       H -2.43569e+00  1.64707e+00  5.38080e-01
       H -4.08590e+00  1.39146e+00  4.99321e-01
4
# CELL(abcABC): 1000.00000  1000.00000  1000.00000    90.00000    90.00000    90.00000  Step:          34  Bead:       0 positions{angstrom}  cell{angstrom}
       O -3.15096e+00  1.06378e+00  3.29589e-01
       H -2.86421e+00  1.50611e-01  4.17531e-01
       H -2.43637e+00  1.64747e+00  5.33970e-01
       H -4.06912e+00  1.38666e+00  5.02433e-01
4
# CELL(abcABC): 1000.00000  1000.00000  1000.00000    90.00000    90.00000    90.00000  Step:          35  Bead:       0 positions{angstrom}  cell{angstrom}
       O -3.15169e+00  1.06375e+00  3.29510e-01
       H -2.86981e+00  1.55079e-01  4.20643e-01
       H -2.43748e+00  1.64954e+00  5.30101e-01
       H -4.05072e+00  1.38061e+00  5.04456e-01
4
# CELL(abcABC): 1000.00000  1000.00000  1000.00000    90.00000    90.00000    90.00000  Step:          36  Bead:       0 positions{angstrom}  cell{angstrom}
       O -3.15251e+00  1.06362e+00  3.29595e-01
       H -2.87566e+00  1.59716e-01  4.22361e-01
       H -2.43773e+00  1.65360e+00  5.24935e-01
       H -4.03165e+00  1.37397e+00  5.06541e-01
4
# CELL(abcABC): 1000.00000  1000.00000  1000.00000    90.00000    90.00000    90.00000  Step:          37  Bead:       0 positions{angstrom}  cell{angstrom}
       O -3.15336e+00  1.06357e+00  3.29704e-01
       H -2.88108e+00  1.64569e-01  4.25001e-01
       H -2.43693e+00  1.65751e+00  5.18731e-01
       H -4.01348e+00  1.36604e+00  5.08381e-01
4
# CELL(abcABC): 1000.00000  1000.00000  1000.00000    90.00000    90.00000    90.00000  Step:          38  Bead:       0 positions{angstrom}  cell{angstrom}
       O -3.15395e+00  1.06357e+00  3.30090e-01
       H -2.88743e+00  1.67849e-01  4.25689e-01
       H -2.43570e+00  1.66049e+00  5.11601e-01
       H -3.99897e+00  1.35975e+00  5.08700e-01
4
# CELL(abcABC): 1000.00000  1000.00000  1000.00000    90.00000    90.00000    90.00000  Step:          39  Bead:       0 positions{angstrom}  cell{angstrom}
       O -3.15454e+00  1.06378e+00  3.30461e-01
       H -2.89272e+00  1.68556e-01  4.26199e-01
       H -2.43379e+00  1.66222e+00  5.04685e-01
       H -3.98637e+00  1.35399e+00  5.09208e-01
4
# CELL(abcABC): 1000.00000  1000.00000  1000.00000    90.00000    90.00000    90.00000  Step:          40  Bead:       0 positions{angstrom}  cell{angstrom}
       O -3.15491e+00  1.06403e+00  3.30711e-01
       H -2.89751e+00  1.67214e-01  4.27031e-01
       H -2.43141e+00  1.66379e+00  4.98731e-01
       H -3.97797e+00  1.34986e+00  5.10374e-01
4
# CELL(abcABC): 1000.00000  1000.00000  1000.00000    90.00000    90.00000    90.00000  Step:          41  Bead:       0 positions{angstrom}  cell{angstrom}
       O -3.15498e+00  1.06431e+00  3.30946e-01
       H -2.90209e+00  1.64523e-01  4.26825e-01
       H -2.42833e+00  1.66522e+00  4.92462e-01
       H -3.97539e+00  1.34663e+00  5.13116e-01
4
# CELL(abcABC): 1000.00000  1000.00000  1000.00000    90.00000    90.00000    90.00000  Step:          42  Bead:       0 positions{angstrom}  cell{angstrom}
       O -3.15483e+00  1.06478e+00  3.31261e-01
       H -2.90466e+00  1.58176e-01  4.25671e-01
       H -2.42504e+00  1.66597e+00  4.85967e-01
       H -3.97850e+00  1.34482e+00  5.15765e-01
4
# CELL(abcABC): 1000.00000  1000.00000  1000.00000    90.00000    90.00000    90.00000  Step:          43  Bead:       0 positions{angstrom}  cell{angstrom}
       O -3.15434e+00  1.06520e+00  3.31622e-01
       H -2.90706e+00  1.51676e-01  4.23470e-01
       H -2.42176e+00  1.66717e+00  4.79161e-01
       H -3.98714e+00  1.34344e+00  5.19032e-01
4
# CELL(abcABC): 1000.00000  1000.00000  1000.00000    90.00000    90.00000    90.00000  Step:          44  Bead:       0 positions{angstrom}  cell{angstrom}
       O -3.15354e+00  1.06565e+00  3.32032e-01
       H -2.90888e+00  1.44342e-01  4.19885e-01
       H -2.41866e+00  1.66695e+00  4.71381e-01
       H -4.00109e+00  1.34387e+00  5.23900e-01
4
# CELL(abcABC): 1000.00000  1000.00000  1000.00000    90.00000    90.00000    90.00000  Step:          45  Bead:       0 positions{angstrom}  cell{angstrom}
       O -3.15244e+00  1.06609e+00  3.32569e-01
       H -2.91095e+00  1.37857e-01  4.14805e-01
       H -2.41511e+00  1.66506e+00  4.62340e-01
       H -4.02001e+00  1.34527e+00  5.29492e-01
4
# CELL(abcABC): 1000.00000  1000.00000  1000.00000    90.00000    90.00000    90.00000  Step:          46  Bead:       0 positions{angstrom}  cell{angstrom}
       O -3.15129e+00  1.06649e+00  3.33230e-01
       H -2.91282e+00  1.33423e-01  4.08411e-01
       H -2.41177e+00  1.66134e+00  4.52420e-01
       H -4.03979e+00  1.34696e+00  5.35312e-01
4
# CELL(abcABC): 1000.00000  1000.00000  1000.00000    90.00000    90.00000    90.00000  Step:          47  Bead:       0 positions{angstrom}  cell{angstrom}
       O -3.15013e+00  1.06672e+00  3.34124e-01
       H -2.91433e+00  1.30592e-01  4.01375e-01
       H -2.40814e+00  1.65706e+00  4.41275e-01
       H -4.06038e+00  1.35056e+00  5.39303e-01
4
# CELL(abcABC): 1000.00000  1000.00000  1000.00000    90.00000    90.00000    90.00000  Step:          48  Bead:       0 positions{angstrom}  cell{angstrom}
       O -3.14906e+00  1.06694e+00  3.35130e-01
       H -2.91494e+00  1.28804e-01  3.93756e-01
       H -2.40414e+00  1.65282e+00  4.29057e-01
       H -4.08065e+00  1.35307e+00  5.43170e-01
4
# CELL(abcABC): 1000.00000  1000.00000  1000.00000    90.00000    90.00000    90.00000  Step:          49  Bead:       0 positions{angstrom}  cell{angstrom}
       O -3.14825e+00  1.06707e+00  3.36153e-01
       H -2.91501e+00  1.28699e-01  3.85860e-01
       H -2.39837e+00  1.64792e+00  4.16637e-01
       H -4.09933e+00  1.35598e+00  5.47249e-01
4
# CELL(abcABC): 1000.00000  1000.00000  1000.00000    90.00000    90.00000    90.00000  Step:          50  Bead:       0 positions{angstrom}  cell{angstrom}
       O -3.14752e+00  1.06719e+00  3.37410e-01
       H -2.91494e+00  1.30762e-01  3.76859e-01
       H -2.39375e+00  1.64204e+00  4.03973e-01
       H -4.11561e+00  1.35791e+00  5.48955e-01
4
# CELL(abcABC): 1000.00000  1000.00000  1000.00000    90.00000    90.00000    90.00000  Step:          51  Bead:       0 positions{angstrom}  cell{angstrom}
       O -3.14710e+00  1.06723e+00  3.38818e-01
       H -2.91476e+00  1.34112e-01  3.66656e-01
       H -2.38883e+00  1.63643e+00  3.90837e-01
       H -4.12734e+00  1.35945e+00  5.49954e-01
4
# CELL(abcABC): 1000.00000  1000.00000  1000.00000    90.00000    90.00000    90.00000  Step:          52  Bead:       0 positions{angstrom}  cell{angstrom}
       O -3.14699e+00  1.06734e+00  3.40471e-01
       H -2.91451e+00  1.38450e-01  3.55763e-01
       H -2.38359e+00  1.63041e+00  3.76222e-01
       H -4.13460e+00  1.35951e+00  5.49219e-01
4
# CELL(abcABC): 1000.00000  1000.00000  1000.00000    90.00000    90.00000    90.00000  Step:          53  Bead:       0 positions{angstrom}  cell{angstrom}
       O -3.14723e+00  1.06741e+00  3.42220e-01
       H -2.91322e+00  1.43926e-01  3.43330e-01
       H -2.37816e+00  1.62612e+00  3.61902e-01
       H -4.13748e+00  1.35722e+00  5.48209e-01
4
# CELL(abcABC): 1000.00000  1000.00000  1000.00000    90.00000    90.00000    90.00000  Step:          54  Bead:       0 positions{angstrom}  cell{angstrom}
       O -3.14777e+00  1.06760e+00  3.43819e-01
       H -2.91154e+00  1.48446e-01  3.31447e-01
       H -2.37297e+00  1.62290e+00  3.48067e-01
       H -4.13583e+00  1.35282e+00  5.48545e-01
4
# CELL(abcABC): 1000.00000  1000.00000  1000.00000    90.00000    90.00000    90.00000  Step:          55  Bead:       0 positions{angstrom}  cell{angstrom}
       O -3.14863e+00  1.06789e+00  3.45474e-01
       H -2.90999e+00  1.52536e-01  3.19910e-01
       H -2.36785e+00  1.62012e+00  3.34692e-01
       H -4.12871e+00  1.34695e+00  5.47192e-01
4
# CELL(abcABC): 1000.00000  1000.00000  1000.00000    90.00000    90.00000    90.00000  Step:          56  Bead:       0 positions{angstrom}  cell{angstrom}
       O -3.14981e+00  1.06824e+00  3.47195e-01
       H -2.90584e+00  1.55914e-01  3.08637e-01
       H -2.36357e+00  1.61729e+00  3.20098e-01
       H -4.11850e+00  1.34082e+00  5.45744e-01
4
# CELL(abcABC): 1000.00000  1000.00000  1000.00000    90.00000    90.00000    90.00000  Step:          57  Bead:       0 positions{angstrom}  cell{angstrom}
       O -3.15115e+00  1.06865e+00  3.48913e-01
       H -2.89976e+00  1.58711e-01  2.97642e-01
       H -2.36144e+00  1.61417e+00  3.06470e-01
       H -4.10542e+00  1.33461e+00  5.43089e-01
4
# CELL(abcABC): 1000.00000  1000.00000  1000.00000    90.00000    90.00000    90.00000  Step:          58  Bead:       0 positions{angstrom}  cell{angstrom}
       O -3.15268e+00  1.06919e+00  3.50661e-01
       H -2.89235e+00  1.59593e-01  2.86346e-01
       H -2.36025e+00  1.61124e+00  2.93590e-01
       H -4.08978e+00  1.32809e+00  5.39529e-01
4
# CELL(abcABC): 1000.00000  1000.00000  1000.00000    90.00000    90.00000    90.00000  Step:          59  Bead:       0 positions{angstrom}  cell{angstrom}
       O -3.15429e+00  1.06972e+00  3.52296e-01
       H -2.88402e+00  1.59767e-01  2.75128e-01
       H -2.36021e+00  1.60912e+00  2.82573e-01
       H -4.07254e+00  1.32161e+00  5.35802e-01
4
# CELL(abcABC): 1000.00000  1000.00000  1000.00000    90.00000    90.00000    90.00000  Step:          60  Bead:       0 positions{angstrom}  cell{angstrom}
       O -3.15588e+00  1.07028e+00  3.53955e-01
       H -2.87705e+00  1.59245e-01  2.64107e-01
       H -2.36094e+00  1.60680e+00  2.70402e-01
       H -4.05359e+00  1.31556e+00  5.32656e-01
4
# CELL(abcABC): 1000.00000  1000.00000  1000.00000    90.00000    90.00000    90.00000  Step:          61  Bead:       0 positions{angstrom}  cell{angstrom}
       O -3.15738e+00  1.07080e+00  3.55590e-01
       H -2.86988e+00  1.58416e-01  2.53089e-01
       H -2.36204e+00  1.60475e+00  2.57460e-01
       H -4.03573e+00  1.31020e+00  5.30669e-01
4
# CELL(abcABC): 1000.00000  1000.00000  1000.00000    90.00000    90.00000    90.00000  Step:          62  Bead:       0 positions{angstrom}  cell{angstrom}
       O -3.15852e+00  1.07126e+00  3.57271e-01
       H -2.86458e+00  1.57559e-01  2.42037e-01
       H -2.36604e+00  1.60279e+00  2.44601e-01
       H -4.01904e+00  1.30576e+00  5.27895e-01
4
# CELL(abcABC): 1000.00000  1000.00000  1000.00000    90.00000    90.00000    90.00000  Step:          63  Bead:       0 positions{angstrom}  cell{angstrom}
       O -3.15918e+00  1.07139e+00  3.58681e-01
       H -2.86039e+00  1.59015e-01  2.32025e-01
       H -2.37201e+00  1.60084e+00  2.32184e-01
       H -4.00682e+00  1.30415e+00  5.27941e-01
4
# CELL(abcABC): 1000.00000  1000.00000  1000.00000    90.00000    90.00000    90.00000  Step:          64  Bead:       0 positions{angstrom}  cell{angstrom}
       O -3.15937e+00  1.07125e+00  3.59909e-01
       H -2.85664e+00  1.62308e-01  2.23684e-01
       H -2.37897e+00  1.59973e+00  2.20396e-01
       H -4.00047e+00  1.30428e+00  5.28574e-01
4
# CELL(abcABC): 1000.00000  1000.00000  1000.00000    90.00000    90.00000    90.00000  Step:          65  Bead:       0 positions{angstrom}  cell{angstrom}
       O -3.15906e+00  1.07074e+00  3.61007e-01
       H -2.85546e+00  1.67717e-01  2.15005e-01
       H -2.38620e+00  1.60130e+00  2.09016e-01
       H -3.99940e+00  1.30535e+00  5.31213e-01
4
# CELL(abcABC): 1000.00000  1000.00000  1000.00000    90.00000    90.00000    90.00000  Step:          66  Bead:       0 positions{angstrom}  cell{angstrom}
       O -3.15827e+00  1.06984e+00  3.61859e-01
       H -2.85613e+00  1.76818e-01  2.07739e-01
       H -2.39388e+00  1.60310e+00  1.98487e-01
       H -4.00358e+00  1.30869e+00  5.35489e-01
4
# CELL(abcABC): 1000.00000  1000.00000  1000.00000    90.00000    90.00000    90.00000  Step:          67  Bead:       0 positions{angstrom}  cell{angstrom}
       O -3.15700e+00  1.06879e+00  3.62570e-01
       H -2.85803e+00  1.85231e-01  2.00250e-01
       H -2.40119e+00  1.60698e+00  1.88962e-01
       H -4.01446e+00  1.31306e+00  5.41210e-01
4
# CELL(abcABC): 1000.00000  1000.00000  1000.00000    90.00000    90.00000    90.00000  Step:          68  Bead:       0 positions{angstrom}  cell{angstrom}
       O -3.15548e+00  1.06756e+00  3.63321e-01
       H -2.86044e+00  1.92450e-01  1.92850e-01
       H -2.40799e+00  1.61311e+00  1.78281e-01
       H -4.02948e+00  1.31931e+00  5.47368e-01
4
# CELL(abcABC): 1000.00000  1000.00000  1000.00000    90.00000    90.00000    90.00000  Step:          69  Bead:       0 positions{angstrom}  cell{angstrom}
       O -3.15373e+00  1.06640e+00  3.63823e-01
       H -2.86395e+00  1.96089e-01  1.87240e-01
       H -2.41517e+00  1.62146e+00  1.68898e-01
       H -4.04663e+00  1.32563e+00  5.54395e-01
4
# CELL(abcABC): 1000.00000  1000.00000  1000.00000    90.00000    90.00000    90.00000  Step:          70  Bead:       0 positions{angstrom}  cell{angstrom}
       O -3.15208e+00  1.06517e+00  3.64292e-01
       H -2.86743e+00  1.97481e-01  1.80683e-01
       H -2.42178e+00  1.63255e+00  1.59600e-01
       H -4.06257e+00  1.33273e+00  5.62803e-01
4
# CELL(abcABC): 1000.00000  1000.00000  1000.00000    90.00000    90.00000    90.00000  Step:          71  Bead:       0 positions{angstrom}  cell{angstrom}
       O -3.15044e+00  1.06415e+00  3.64816e-01
       H -2.87168e+00  1.94495e-01  1.72574e-01
       H -2.42866e+00  1.64468e+00  1.50263e-01
       H -4.07748e+00  1.33983e+00  5.71933e-01
4
# CELL(abcABC): 1000.00000  1000.00000  1000.00000    90.00000    90.00000    90.00000  Step:          72  Bead:       0 positions{angstrom}  cell{angstrom}
       O -3.14895e+00  1.06319e+00  3.65288e-01
       H -2.87553e+00  1.88741e-01  1.64564e-01
       H -2.43542e+00  1.65800e+00  1.42148e-01
       H -4.09054e+00  1.34738e+00  5.80569e-01
4
# CELL(abcABC): 1000.00000  1000.00000  1000.00000    90.00000    90.00000    90.00000  Step:          73  Bead:       0 positions{angstrom}  cell{angstrom}
       O -3.14757e+00  1.06246e+00  3.65827e-01
       H -2.87947e+00  1.80487e-01  1.56310e-01
       H -2.44260e+00  1.67210e+00  1.34645e-01
       H -4.10141e+00  1.35325e+00  5.87772e-01
4
# CELL(abcABC): 1000.00000  1000.00000  1000.00000    90.00000    90.00000    90.00000  Step:          74  Bead:       0 positions{angstrom}  cell{angstrom}
       O -3.14638e+00  1.06183e+00  3.66514e-01
       H -2.88313e+00  1.71032e-01  1.46834e-01
       H -2.45053e+00  1.68596e+00  1.26673e-01
       H -4.10875e+00  1.35879e+00  5.94303e-01
4
# CELL(abcABC): 1000.00000  1000.00000  1000.00000    90.00000    90.00000    90.00000  Step:          75  Bead:       0 positions{angstrom}  cell{angstrom}
       O -3.14518e+00  1.06138e+00  3.67180e-01
       H -2.88743e+00  1.60551e-01  1.37121e-01
       H -2.46014e+00  1.69830e+00  1.20262e-01
       H -4.11377e+00  1.36400e+00  5.99854e-01
4
# CELL(abcABC): 1000.00000  1000.00000  1000.00000    90.00000    90.00000    90.00000  Step:          76  Bead:       0 positions{angstrom}  cell{angstrom}
       O -3.14423e+00  1.06091e+00  3.67685e-01
       H -2.89121e+00  1.51594e-01  1.29091e-01
       H -2.47105e+00  1.70933e+00  1.14780e-01
       H -4.11420e+00  1.36946e+00  6.05358e-01
4
# CELL(abcABC): 1000.00000  1000.00000  1000.00000    90.00000    90.00000    90.00000  Step:          77  Bead:       0 positions{angstrom}  cell{angstrom}
       O -3.14336e+00  1.06046e+00  3.68101e-01
       H -2.89546e+00  1.45879e-01  1.21923e-01
       H -2.48352e+00  1.71897e+00  1.10731e-01
       H -4.11135e+00  1.37269e+00  6.09976e-01
4
# CELL(abcABC): 1000.00000  1000.00000  1000.00000    90.00000    90.00000    90.00000  Step:          78  Bead:       0 positions{angstrom}  cell{angstrom}
       O -3.14260e+00  1.06005e+00  3.68625e-01
       H -2.90128e+00  1.42481e-01  1.14814e-01
       H -2.49600e+00  1.72741e+00  1.07162e-01
       H -4.10507e+00  1.37415e+00  6.12333e-01
4
# CELL(abcABC): 1000.00000  1000.00000  1000.00000    90.00000    90.00000    90.00000  Step:          79  Bead:       0 positions{angstrom}  cell{angstrom}
       O -3.14209e+00  1.05975e+00  3.69064e-01
       H -2.90812e+00  1.42982e-01  1.10034e-01
       H -2.50761e+00  1.73312e+00  1.03999e-01
       H -4.09472e+00  1.37266e+00  6.13311e-01
4
# CELL(abcABC): 1000.00000  1000.00000  1000.00000    90.00000    90.00000    90.00000  Step:          80  Bead:       0 positions{angstrom}  cell{angstrom}
       O -3.14187e+00  1.05949e+00  3.69349e-01
       H -2.91480e+00  1.47086e-01  1.06278e-01
       H -2.51878e+00  1.73674e+00  1.02338e-01
       H -4.08033e+00  1.36910e+00  6.14193e-01
4
# CELL(abcABC): 1000.00000  1000.00000  1000.00000    90.00000    90.00000    90.00000  Step:          81  Bead:       0 positions{angstrom}  cell{angstrom}
       O -3.14192e+00  1.05911e+00  3.69664e-01
       H -2.91943e+00  1.54957e-01  1.02766e-01
       H -2.52996e+00  1.74069e+00  1.01135e-01
       H -4.06367e+00  1.36328e+00  6.13912e-01
4
# CELL(abcABC): 1000.00000  1000.00000  1000.00000    90.00000    90.00000    90.00000  Step:          82  Bead:       0 positions{angstrom}  cell{angstrom}
       O -3.14217e+00  1.05891e+00  3.69864e-01
       H -2.92317e+00  1.64341e-01  1.00627e-01
       H -2.53982e+00  1.74220e+00  9.99698e-02
       H -4.04612e+00  1.35554e+00  6.14047e-01
4
# CELL(abcABC): 1000.00000  1000.00000  1000.00000    90.00000    90.00000    90.00000  Step:          83  Bead:       0 positions{angstrom}  cell{angstrom}
       O -3.14264e+00  1.05871e+00  3.70061e-01
       H -2.92640e+00  1.75209e-01  9.92061e-02
       H -2.54832e+00  1.74330e+00  9.87133e-02
       H -4.02703e+00  1.34677e+00  6.13596e-01
4
# CELL(abcABC): 1000.00000  1000.00000  1000.00000    90.00000    90.00000    90.00000  Step:          84  Bead:       0 positions{angstrom}  cell{angstrom}
       O -3.14322e+00  1.05861e+00  3.70302e-01
       H -2.92781e+00  1.85107e-01  9.66541e-02
       H -2.55616e+00  1.74417e+00  9.70667e-02
       H -4.00856e+00  1.33762e+00  6.13966e-01
4
# CELL(abcABC): 1000.00000  1000.00000  1000.00000    90.00000    90.00000    90.00000  Step:          85  Bead:       0 positions{angstrom}  cell{angstrom}