4
# CELL(abcABC): 1000.00000  1000.00000  1000.00000    90.00000    90.00000    90.00000  Step:           0  Bead:       0 positions{angstrom}  cell{angstrom}
       O -3.14542e+00  1.06498e+00  3.53973e-01
       H -3.62476e+00  5.94251e-01 -2.98457e-01
       H -2.60312e+00  4.67094e-01  7.64446e-01
       H -3.22950e+00  2.10426e+00  6.00933e-01
4
# CELL(abcABC): 1000.00000  1000.00000  1000.00000    90.00000    90.00000    90.00000  Step:           1  Bead:       0 positions{angstrom}  cell{angstrom}
       O -3.14385e+00  1.06544e+00  3.53384e-01
       H -3.63489e+00  5.86679e-01 -2.94859e-01
       H -2.60081e+00  4.64050e-01  7.66880e-01
       H -3.24660e+00  2.10757e+00  6.04256e-01
4
# CELL(abcABC): 1000.00000  1000.00000  1000.00000    90.00000    90.00000    90.00000  Step:           2  Bead:       0 positions{angstrom}  cell{angstrom}
       O -3.14260e+00  1.06616e+00  3.52678e-01
       H -3.64548e+00  5.79100e-01 -2.91299e-01
       H -2.59305e+00  4.56807e-01  7.71529e-01
       H -3.26360e+00  2.11093e+00  6.07248e-01
4
# CELL(abcABC): 1000.00000  1000.00000  1000.00000    90.00000    90.00000    90.00000  Step:           3  Bead:       0 positions{angstrom}  cell{angstrom}
       O -3.14151e+00  1.06709e+00  3.51810e-01
       H -3.65520e+00  5.70644e-01 -2.85773e-01
       H -2.58296e+00  4.47943e-01  7.78106e-01
       H -3.28131e+00  2.11360e+00  6.08916e-01
4
# CELL(abcABC): 1000.00000  1000.00000  1000.00000    90.00000    90.00000    90.00000  Step:           4  Bead:       0 positions{angstrom}  cell{angstrom}
       O -3.14057e+00  1.06810e+00  3.50985e-01
       H -3.66434e+00  5.61676e-01 -2.80606e-01
       H -2.57112e+00  4.38803e-01  7.84433e-01
       H -3.29886e+00  2.11564e+00  6.10525e-01
4
# CELL(abcABC): 1000.00000  1000.00000  1000.00000    90.00000    90.00000    90.00000  Step:           5  Bead:       0 positions{angstrom}  cell{angstrom}
       O -3.13962e+00  1.06891e+00  3.50208e-01
       H -3.67293e+00  5.53809e-01 -2.74468e-01
       H -2.56027e+00  4.31607e-01  7.90902e-01
       H -3.31632e+00  2.11781e+00  6.10251e-01
4
# CELL(abcABC): 1000.00000  1000.00000  1000.00000    90.00000    90.00000    90.00000  Step:           6  Bead:       0 positions{angstrom}  cell{angstrom}
       O -3.13858e+00  1.06961e+00  3.49515e-01
       H -3.67972e+00  5.47576e-01 -2.67682e-01
       H -2.55154e+00  4.24926e-01  7.94667e-01
       H -3.33470e+00  2.11958e+00  6.10707e-01
4
# CELL(abcABC): 1000.00000  1000.00000  1000.00000    90.00000    90.00000    90.00000  Step:           7  Bead:       0 positions{angstrom}  cell{angstrom}
       O -3.13759e+00  1.06996e+00  3.48706e-01
       H -3.68306e+00  5.42912e-01 -2.57858e-01
       H -2.54529e+00  4.20886e-01  7.96934e-01
       H -3.35330e+00  2.12279e+00  6.11449e-01
4
# CELL(abcABC): 1000.00000  1000.00000  1000.00000    90.00000    90.00000    90.00000  Step:           8  Bead:       0 positions{angstrom}  cell{angstrom}
       O -3.13666e+00  1.07003e+00  3.48061e-01
       H -3.68341e+00  5.39727e-01 -2.47159e-01
       H -2.54078e+00  4.19411e-01  7.95950e-01
       H -3.37218e+00  2.12633e+00  6.11968e-01
4
# CELL(abcABC): 1000.00000  1000.00000  1000.00000    90.00000    90.00000    90.00000  Step:           9  Bead:       0 positions{angstrom}  cell{angstrom}
       O -3.13574e+00  1.06990e+00  3.47427e-01
       H -3.68195e+00  5.36876e-01 -2.34250e-01
       H -2.53806e+00  4.21690e-01  7.92883e-01
       H -3.39108e+00  2.12887e+00  6.12189e-01
4
# CELL(abcABC): 1000.00000  1000.00000  1000.00000    90.00000    90.00000    90.00000  Step:          10  Bead:       0 positions{angstrom}  cell{angstrom}
       O -3.13476e+00  1.06947e+00  3.47083e-01
       H -3.67898e+00  5.34704e-01 -2.21679e-01
       H -2.53777e+00  4.28073e-01  7.86566e-01
       H -3.40988e+00  2.13155e+00  6.11400e-01
4
# CELL(abcABC): 1000.00000  1000.00000  1000.00000    90.00000    90.00000    90.00000  Step:          11  Bead:       0 positions{angstrom}  cell{angstrom}
       O -3.13373e+00  1.06888e+00  3.47066e-01
       H -3.67486e+00  5.33418e-01 -2.10732e-01
       H -2.54075e+00  4.36991e-01  7.77774e-01
       H -3.42732e+00  2.13333e+00  6.09517e-01
4
# CELL(abcABC): 1000.00000  1000.00000  1000.00000    90.00000    90.00000    90.00000  Step:          12  Bead:       0 positions{angstrom}  cell{angstrom}
       O -3.13284e+00  1.06828e+00  3.47309e-01
       H -3.66909e+00  5.31601e-01 -2.01173e-01
       H -2.54477e+00  4.46503e-01  7.66684e-01
       H -3.44326e+00  2.13514e+00  6.07196e-01
4
# CELL(abcABC): 1000.00000  1000.00000  1000.00000    90.00000    90.00000    90.00000  Step:          13  Bead:       0 positions{angstrom}  cell{angstrom}
       O -3.13207e+00  1.06775e+00  3.47701e-01
       H -3.66352e+00  5.29509e-01 -1.93131e-01
       H -2.54718e+00  4.56453e-01  7.55276e-01
       H -3.45867e+00  2.13567e+00  6.04339e-01
4
# CELL(abcABC): 1000.00000  1000.00000  1000.00000    90.00000    90.00000    90.00000  Step:          14  Bead:       0 positions{angstrom}  cell{angstrom}
       O -3.13148e+00  1.06737e+00  3.48192e-01
       H -3.65741e+00  5.25843e-01 -1.86967e-01
       H -2.54738e+00  4.66327e-01  7.44519e-01
       H -3.47388e+00  2.13552e+00  6.01129e-01
4
# CELL(abcABC): 1000.00000  1000.00000  1000.00000    90.00000    90.00000    90.00000  Step:          15  Bead:       0 positions{angstrom}  cell{angstrom}
       O -3.13101e+00  1.06713e+00  3.48563e-01
       H -3.65459e+00  5.20066e-01 -1.81302e-01
       H -2.54521e+00  4.74930e-01  7.35564e-01
       H -3.48637e+00  2.13642e+00  5.98532e-01
4
# CELL(abcABC): 1000.00000  1000.00000  1000.00000    90.00000    90.00000    90.00000  Step:          16  Bead:       0 positions{angstrom}  cell{angstrom}
       O -3.13081e+00  1.06713e+00  3.48979e-01
       H -3.65223e+00  5.12295e-01 -1.78647e-01
       H -2.53926e+00  4.82014e-01  7.28972e-01
       H -3.49778e+00  2.13709e+00  5.95867e-01
4
# CELL(abcABC): 1000.00000  1000.00000  1000.00000    90.00000    90.00000    90.00000  Step:          17  Bead:       0 positions{angstrom}  cell{angstrom}
       O -3.13079e+00  1.06744e+00  3.49394e-01
       H -3.65054e+00  5.03613e-01 -1.78170e-01
       H -2.52994e+00  4.86899e-01  7.24018e-01
       H -3.50907e+00  2.13611e+00  5.93762e-01
4
# CELL(abcABC): 1000.00000  1000.00000  1000.00000    90.00000    90.00000    90.00000  Step:          18  Bead:       0 positions{angstrom}  cell{angstrom}
       O -3.13102e+00  1.06791e+00  3.49782e-01
       H -3.65089e+00  4.94851e-01 -1.79449e-01
       H -2.51524e+00  4.89133e-01  7.21487e-01
       H -3.51989e+00  2.13516e+00  5.91408e-01
4
# CELL(abcABC): 1000.00000  1000.00000  1000.00000    90.00000    90.00000    90.00000  Step:          19  Bead:       0 positions{angstrom}  cell{angstrom}
       O -3.13158e+00  1.06859e+00  3.50126e-01
       H -3.65125e+00  4.85678e-01 -1.81562e-01
       H -2.49795e+00  4.89003e-01  7.20177e-01
       H -3.52786e+00  2.13364e+00  5.89379e-01
4
# CELL(abcABC): 1000.00000  1000.00000  1000.00000    90.00000    90.00000    90.00000  Step:          20  Bead:       0 positions{angstrom}  cell{angstrom}
       O -3.13234e+00  1.06936e+00  3.50514e-01
       H -3.65134e+00  4.77318e-01 -1.85732e-01
       H -2.47960e+00  4.88375e-01  7.20147e-01
       H -3.53404e+00  2.13033e+00  5.87410e-01
4
# CELL(abcABC): 1000.00000  1000.00000  1000.00000    90.00000    90.00000    90.00000  Step:          21  Bead:       0 positions{angstrom}  cell{angstrom}
       O -3.13333e+00  1.07007e+00  3.50983e-01
       H -3.65103e+00  4.69476e-01 -1.91129e-01
       H -2.45907e+00  4.88939e-01  7.21239e-01
       H -3.53917e+00  2.12645e+00  5.84272e-01
4
# CELL(abcABC): 1000.00000  1000.00000  1000.00000    90.00000    90.00000    90.00000  Step:          22  Bead:       0 positions{angstrom}  cell{angstrom}
       O -3.13448e+00  1.07051e+00  3.51578e-01
       H -3.65047e+00  4.62386e-01 -1.95016e-01
       H -2.43730e+00  4.91572e-01  7.20031e-01
       H -3.54322e+00  2.12392e+00  5.79927e-01
4
# CELL(abcABC): 1000.00000  1000.00000  1000.00000    90.00000    90.00000    90.00000  Step:          23  Bead:       0 positions{angstrom}  cell{angstrom}
       O -3.13571e+00  1.07066e+00  3.52408e-01
       H -3.64796e+00  4.57914e-01 -1.98393e-01
       H -2.41676e+00  4.97441e-01  7.17801e-01
       H -3.54674e+00  2.12011e+00  5.72358e-01
4
# CELL(abcABC): 1000.00000  1000.00000  1000.00000    90.00000    90.00000    90.00000  Step:          24  Bead:       0 positions{angstrom}  cell{angstrom}
       O -3.13696e+00  1.07038e+00  3.53304e-01
       H -3.64287e+00  4.54752e-01 -2.00481e-01
       H -2.39892e+00  5.07705e-01  7.13925e-01
       H -3.54983e+00  2.11743e+00  5.64093e-01
4
# CELL(abcABC): 1000.00000  1000.00000  1000.00000    90.00000    90.00000    90.00000  Step:          25  Bead:       0 positions{angstrom}  cell{angstrom}
       O -3.13812e+00  1.06984e+00  3.54171e-01
       H -3.63585e+00  4.52864e-01 -2.00299e-01
       H -2.38512e+00  5.20834e-01  7.08118e-01
       H -3.55233e+00  2.11472e+00  5.55964e-01
4
# CELL(abcABC): 1000.00000  1000.00000  1000.00000    90.00000    90.00000    90.00000  Step:          26  Bead:       0 positions{angstrom}  cell{angstrom}
       O -3.13916e+00  1.06907e+00  3.55071e-01
       H -3.62709e+00  4.52304e-01 -1.99483e-01
       H -2.37494e+00  5.37048e-01  7.00007e-01
       H -3.55465e+00  2.11135e+00  5.48962e-01
4
# CELL(abcABC): 1000.00000  1000.00000  1000.00000    90.00000    90.00000    90.00000  Step:          27  Bead:       0 positions{angstrom}  cell{angstrom}
       O -3.14020e+00  1.06802e+00  3.56056e-01
       H -3.61711e+00  4.54219e-01 -1.98297e-01
       H -2.36851e+00  5.55379e-01  6.89662e-01
       H -3.55464e+00  2.10780e+00  5.42500e-01
4
# CELL(abcABC): 1000.00000  1000.00000  1000.00000    90.00000    90.00000    90.00000  Step:          28  Bead:       0 positions{angstrom}  cell{angstrom}
       O -3.14107e+00  1.06679e+00  3.57036e-01
       H -3.60733e+00  4.55435e-01 -1.96746e-01
       H -2.36468e+00  5.76139e-01  6.78055e-01
       H -3.55446e+00  2.10526e+00  5.36988e-01
4
# CELL(abcABC): 1000.00000  1000.00000  1000.00000    90.00000    90.00000    90.00000  Step:          29  Bead:       0 positions{angstrom}  cell{angstrom}
       O -3.14188e+00  1.06545e+00  3.58085e-01
       H -3.59653e+00  4.57089e-01 -1.96635e-01
       H -2.36405e+00  5.98320e-01  6.65454e-01
       H -3.55302e+00  2.10281e+00  5.32826e-01
4
# CELL(abcABC): 1000.00000  1000.00000  1000.00000    90.00000    90.00000    90.00000  Step:          30  Bead:       0 positions{angstrom}  cell{angstrom}
       O -3.14267e+00  1.06401e+00  3.59138e-01
       H -3.58550e+00  4.59147e-01 -1.96346e-01
       H -2.36453e+00  6.20894e-01  6.52958e-01
       H -3.55108e+00  2.10091e+00  5.28332e-01
4
# CELL(abcABC): 1000.00000  1000.00000  1000.00000    90.00000    90.00000    90.00000  Step:          31  Bead:       0 positions{angstrom}  cell{angstrom}
       O -3.14363e+00  1.06260e+00  3.60276e-01
       H -3.57363e+00  4.59976e-01 -1.97063e-01
       H -2.36359e+00  6.43944e-01  6.40252e-01
       H -3.54854e+00  2.09942e+00  5.23683e-01
4
# CELL(abcABC): 1000.00000  1000.00000  1000.00000    90.00000    90.00000    90.00000  Step:          32  Bead:       0 positions{angstrom}  cell{angstrom}
       O -3.14470e+00  1.06153e+00  3.61251e-01
       H -3.56390e+00  4.56806e-01 -1.98913e-01
       H -2.35958e+00  6.66641e-01  6.29867e-01
       H -3.54540e+00  2.09692e+00  5.20445e-01
4
# CELL(abcABC): 1000.00000  1000.00000  1000.00000    90.00000    90.00000    90.00000  Step:          33  Bead:       0 positions{angstrom}  cell{angstrom}
       O -3.14593e+00  1.06090e+00  3.62109e-01
       H -3.55609e+00  4.50485e-01 -2.01404e-01
       H -2.35139e+00  6.86067e-01  6.21558e-01
       H -3.54175e+00  2.09379e+00  5.17629e-01
4
# CELL(abcABC): 1000.00000  1000.00000  1000.00000    90.00000    90.00000    90.00000  Step:          34  Bead:       0 positions{angstrom}  cell{angstrom}
       O -3.14725e+00  1.06064e+00  3.63035e-01
       H -3.54912e+00  4.41576e-01 -2.05726e-01
       H -2.34084e+00  7.02540e-01  6.15296e-01
       H -3.53839e+00  2.09040e+00  5.13507e-01
4
# CELL(abcABC): 1000.00000  1000.00000  1000.00000    90.00000    90.00000    90.00000  Step:          35  Bead:       0 positions{angstrom}  cell{angstrom}
       O -3.14880e+00  1.06064e+00  3.63912e-01
       H -3.54137e+00  4.30649e-01 -2.11945e-01
       H -2.32769e+00  7.17652e-01  6.11314e-01
       H -3.53464e+00  2.08627e+00  5.09792e-01
4
# CELL(abcABC): 1000.00000  1000.00000  1000.00000    90.00000    90.00000    90.00000  Step:          36  Bead:       0 positions{angstrom}  cell{angstrom}
       O -3.15055e+00  1.06076e+00  3.64732e-01
       H -3.53383e+00  4.18535e-01 -2.19138e-01
       H -2.31155e+00  7.32222e-01  6.07799e-01
       H -3.53056e+00  2.08178e+00  5.07486e-01
4
# CELL(abcABC): 1000.00000  1000.00000  1000.00000    90.00000    90.00000    90.00000  Step:          37  Bead:       0 positions{angstrom}  cell{angstrom}
       O -3.15245e+00  1.06107e+00  3.65338e-01
       H -3.52561e+00  4.06931e-01 -2.24199e-01
       H -2.29353e+00  7.44952e-01  6.04642e-01
       H -3.52657e+00  2.07583e+00  5.06076e-01
4
# CELL(abcABC): 1000.00000  1000.00000  1000.00000    90.00000    90.00000    90.00000  Step:          38  Bead:       0 positions{angstrom}  cell{angstrom}
       O -3.15420e+00  1.06140e+00  3.65994e-01
       H -3.51803e+00  3.95525e-01 -2.29436e-01
       H -2.27581e+00  7.55982e-01  6.01533e-01
       H -3.52420e+00  2.07099e+00  5.04018e-01
4
# CELL(abcABC): 1000.00000  1000.00000  1000.00000    90.00000    90.00000    90.00000  Step:          39  Bead:       0 positions{angstrom}  cell{angstrom}
       O -3.15601e+00  1.06179e+00  3.66411e-01
       H -3.50905e+00  3.84689e-01 -2.32493e-01
       H -2.25971e+00  7.65786e-01  5.99216e-01
       H -3.52058e+00  2.06578e+00  5.02768e-01
4
# CELL(abcABC): 1000.00000  1000.00000  1000.00000    90.00000    90.00000    90.00000  Step:          40  Bead:       0 positions{angstrom}  cell{angstrom}
       O -3.15766e+00  1.06201e+00  3.66494e-01
       H -3.49925e+00  3.75716e-01 -2.32463e-01
       H -2.24685e+00  7.76116e-01  5.98112e-01
       H -3.51694e+00  2.06094e+00  5.02528e-01
4
# CELL(abcABC): 1000.00000  1000.00000  1000.00000    90.00000    90.00000    90.00000  Step:          41  Bead:       0 positions{angstrom}  cell{angstrom}
       O -3.15904e+00  1.06203e+00  3.66369e-01
       H -3.48904e+00  3.69452e-01 -2.30566e-01
       H -2.23798e+00  7.87498e-01  5.96722e-01
       H -3.51417e+00  2.05549e+00  5.03996e-01
4
# CELL(abcABC): 1000.00000  1000.00000  1000.00000    90.00000    90.00000    90.00000  Step:          42  Bead:       0 positions{angstrom}  cell{angstrom}
       O -3.16019e+00  1.06200e+00  3.66150e-01
       H -3.47682e+00  3.63279e-01 -2.26791e-01
       H -2.23406e+00  7.99713e-01  5.95023e-01
       H -3.51203e+00  2.04989e+00  5.05398e-01
4
# CELL(abcABC): 1000.00000  1000.00000  1000.00000    90.00000    90.00000    90.00000  Step:          43  Bead:       0 positions{angstrom}  cell{angstrom}
       O -3.16096e+00  1.06174e+00  3.65812e-01
       H -3.46456e+00  3.59685e-01 -2.21401e-01
       H -2.23535e+00  8.14037e-01  5.92943e-01
       H -3.51080e+00  2.04327e+00  5.07462e-01
4
# CELL(abcABC): 1000.00000  1000.00000  1000.00000    90.00000    90.00000    90.00000  Step:          44  Bead:       0 positions{angstrom}  cell{angstrom}
       O -3.16133e+00  1.06139e+00  3.65361e-01
       H -3.45211e+00  3.56732e-01 -2.15113e-01
       H -2.24142e+00  8.28547e-01  5.89949e-01
       H -3.51125e+00  2.03728e+00  5.11312e-01
4
# CELL(abcABC): 1000.00000  1000.00000  1000.00000    90.00000    90.00000    90.00000  Step:          45  Bead:       0 positions{angstrom}  cell{angstrom}
       O -3.16128e+00  1.06099e+00  3.64879e-01
       H -3.44060e+00  3.54673e-01 -2.08505e-01
       H -2.25061e+00  8.42722e-01  5.85998e-01
       H -3.51446e+00  2.03150e+00  5.16308e-01
4
# CELL(abcABC): 1000.00000  1000.00000  1000.00000    90.00000    90.00000    90.00000  Step:          46  Bead:       0 positions{angstrom}  cell{angstrom}
       O -3.16100e+00  1.06061e+00  3.64354e-01
       H -3.42987e+00  3.53375e-01 -2.01930e-01
       H -2.26220e+00  8.55953e-01  5.81806e-01
       H -3.51800e+00  2.02569e+00  5.22257e-01
4
# CELL(abcABC): 1000.00000  1000.00000  1000.00000    90.00000    90.00000    90.00000  Step:          47  Bead:       0 positions{angstrom}  cell{angstrom}
       O -3.16054e+00  1.06017e+00  3.63890e-01
       H -3.42011e+00  3.51291e-01 -1.95311e-01
       H -2.27391e+00  8.68872e-01  5.77450e-01
       H -3.52337e+00  2.02186e+00  5.27373e-01
4
# CELL(abcABC): 1000.00000  1000.00000  1000.00000    90.00000    90.00000    90.00000  Step:          48  Bead:       0 positions{angstrom}  cell{angstrom}
       O -3.16002e+00  1.05993e+00  3.63353e-01
       H -3.41111e+00  3.47036e-01 -1.89129e-01
       H -2.28370e+00  8.81419e-01  5.73565e-01
       H -3.53080e+00  2.01733e+00  5.33589e-01
4
# CELL(abcABC): 1000.00000  1000.00000  1000.00000    90.00000    90.00000    90.00000  Step:          49  Bead:       0 positions{angstrom}  cell{angstrom}
       O -3.15963e+00  1.05985e+00  3.62633e-01
       H -3.40344e+00  3.40776e-01 -1.83423e-01
       H -2.28825e+00  8.92367e-01  5.71474e-01
       H -3.54014e+00  2.01384e+00  5.41411e-01
4
# CELL(abcABC): 1000.00000  1000.00000  1000.00000    90.00000    90.00000    90.00000  Step:          50  Bead:       0 positions{angstrom}  cell{angstrom}
       O -3.15922e+00  1.06003e+00  3.61934e-01
       H -3.39756e+00  3.32962e-01 -1.79173e-01
       H -2.28929e+00  9.01118e-01  5.71370e-01
       H -3.55146e+00  2.01016e+00  5.48359e-01
4
# CELL(abcABC): 1000.00000  1000.00000  1000.00000    90.00000    90.00000    90.00000  Step:          51  Bead:       0 positions{angstrom}  cell{angstrom}
       O -3.15901e+00  1.06036e+00  3.61161e-01
       H -3.39344e+00  3.23277e-01 -1.76380e-01
       H -2.28500e+00  9.08703e-01  5.73062e-01
       H -3.56326e+00  2.00702e+00  5.56142e-01
4
# CELL(abcABC): 1000.00000  1000.00000  1000.00000    90.00000    90.00000    90.00000  Step:          52  Bead:       0 positions{angstrom}  cell{angstrom}
       O -3.15893e+00  1.06091e+00  3.60405e-01
       H -3.39096e+00  3.12470e-01 -1.74201e-01
       H -2.27599e+00  9.14420e-01  5.75310e-01
       H -3.57602e+00  2.00339e+00  5.63712e-01
4
# CELL(abcABC): 1000.00000  1000.00000  1000.00000    90.00000    90.00000    90.00000  Step:          53  Bead:       0 positions{angstrom}  cell{angstrom}
       O -3.15894e+00  1.06149e+00  3.59520e-01
       H -3.38890e+00  3.02055e-01 -1.73016e-01
       H -2.26382e+00  9.20559e-01  5.79433e-01
       H -3.58999e+00  1.99839e+00  5.72458e-01
4
# CELL(abcABC): 1000.00000  1000.00000  1000.00000    90.00000    90.00000    90.00000  Step:          54  Bead:       0 positions{angstrom}  cell{angstrom}
       O -3.15891e+00  1.06216e+00  3.58275e-01
       H -3.38762e+00  2.91411e-01 -1.70273e-01
       H -2.25056e+00  9.26756e-01  5.85021e-01
       H -3.60505e+00  1.99224e+00  5.83890e-01
4
# CELL(abcABC): 1000.00000  1000.00000  1000.00000    90.00000    90.00000    90.00000  Step:          55  Bead:       0 positions{angstrom}  cell{angstrom}
       O -3.15879e+00  1.06278e+00  3.56902e-01
       H -3.38732e+00  2.82282e-01 -1.65790e-01
       H -2.23771e+00  9.32697e-01  5.91400e-01
       H -3.62007e+00  1.98550e+00  5.94822e-01
4
# CELL(abcABC): 1000.00000  1000.00000  1000.00000    90.00000    90.00000    90.00000  Step:          56  Bead:       0 positions{angstrom}  cell{angstrom}
       O -3.15853e+00  1.06327e+00  3.55451e-01
       H -3.38499e+00  2.75285e-01 -1.59428e-01
       H -2.22734e+00  9.38222e-01  5.96247e-01
       H -3.63702e+00  1.97922e+00  6.06646e-01
4
# CELL(abcABC): 1000.00000  1000.00000  1000.00000    90.00000    90.00000    90.00000  Step:          57  Bead:       0 positions{angstrom}  cell{angstrom}
       O -3.15797e+00  1.06360e+00  3.53903e-01
       H -3.38101e+00  2.70905e-01 -1.51208e-01
       H -2.22162e+00  9.43259e-01  6.01225e-01
       H -3.65554e+00  1.97336e+00  6.18008e-01
4
# CELL(abcABC): 1000.00000  1000.00000  1000.00000    90.00000    90.00000    90.00000  Step:          58  Bead:       0 positions{angstrom}  cell{angstrom}
       O -3.15719e+00  1.06386e+00  3.52351e-01
       H -3.37579e+00  2.67622e-01 -1.42000e-01
       H -2.21971e+00  9.48301e-01  6.05749e-01
       H -3.67511e+00  1.96741e+00  6.28919e-01
4
# CELL(abcABC): 1000.00000  1000.00000  1000.00000    90.00000    90.00000    90.00000  Step:          59  Bead:       0 positions{angstrom}  cell{angstrom}
       O -3.15616e+00  1.06400e+00  3.50716e-01
       H -3.36947e+00  2.65931e-01 -1.31858e-01
       H -2.22176e+00  9.53857e-01  6.10691e-01
       H -3.69561e+00  1.96138e+00  6.39785e-01
4
# CELL(abcABC): 1000.00000  1000.00000  1000.00000    90.00000    90.00000    90.00000  Step:          60  Bead:       0 positions{angstrom}  cell{angstrom}
       O -3.15492e+00  1.06415e+00  3.49204e-01
       H -3.36407e+00  2.64753e-01 -1.21254e-01
       H -2.22689e+00  9.58764e-01  6.12905e-01
       H -3.71562e+00  1.95525e+00  6.50967e-01
4
# CELL(abcABC): 1000.00000  1000.00000  1000.00000    90.00000    90.00000    90.00000  Step:          61  Bead:       0 positions{angstrom}  cell{angstrom}
       O -3.15358e+00  1.06436e+00  3.47831e-01
       H -3.35778e+00  2.63285e-01 -1.11008e-01
       H -2.23381e+00  9.63299e-01  6.12796e-01
       H -3.73634e+00  1.94879e+00  6.62625e-01
4
# CELL(abcABC): 1000.00000  1000.00000  1000.00000    90.00000    90.00000    90.00000  Step:          62  Bead:       0 positions{angstrom}  cell{angstrom}
       O -3.15203e+00  1.06474e+00  3.46725e-01
       H -3.35240e+00  2.60620e-01 -1.01774e-01
       H -2.24387e+00  9.67087e-01  6.11366e-01
       H -3.75616e+00  1.94175e+00  6.72379e-01
4
# CELL(abcABC): 1000.00000  1000.00000  1000.00000    90.00000    90.00000    90.00000  Step:          63  Bead:       0 positions{angstrom}  cell{angstrom}
       O -3.15041e+00  1.06511e+00  3.45601e-01
       H -3.34695e+00  2.58239e-01 -9.29318e-02
       H -2.25467e+00  9.69727e-01  6.09335e-01
       H -3.77659e+00  1.93558e+00  6.83416e-01
4
# CELL(abcABC): 1000.00000  1000.00000  1000.00000    90.00000    90.00000    90.00000  Step:          64  Bead:       0 positions{angstrom}  cell{angstrom}
       O -3.14890e+00  1.06561e+00  3.44564e-01
       H -3.34066e+00  2.55174e-01 -8.42618e-02
       H -2.26376e+00  9.71621e-01  6.07386e-01
       H -3.79766e+00  1.92881e+00  6.93154e-01
4
# CELL(abcABC): 1000.00000  1000.00000  1000.00000    90.00000    90.00000    90.00000  Step:          65  Bead:       0 positions{angstrom}  cell{angstrom}
       O -3.14759e+00  1.06620e+00  3.43667e-01
       H -3.33568e+00  2.51587e-01 -7.80873e-02
       H -2.26917e+00  9.74215e-01  6.05804e-01
       H -3.81802e+00  1.92049e+00  7.02796e-01
4
# CELL(abcABC): 1000.00000  1000.00000  1000.00000    90.00000    90.00000    90.00000  Step:          66  Bead:       0 positions{angstrom}  cell{angstrom}
       O -3.14657e+00  1.06682e+00  3.42784e-01
       H -3.33140e+00  2.49555e-01 -7.27321e-02
       H -2.27025e+00  9.74839e-01  6.05379e-01
       H -3.83751e+00  1.91201e+00  7.11885e-01
4
# CELL(abcABC): 1000.00000  1000.00000  1000.00000    90.00000    90.00000    90.00000  Step:          67  Bead:       0 positions{angstrom}  cell{angstrom}
       O -3.14576e+00  1.06765e+00  3.42008e-01
       H -3.32757e+00  2.45695e-01 -6.98427e-02
       H -2.26625e+00  9.75191e-01  6.06409e-01
       H -3.85815e+00  1.90237e+00  7.20281e-01
4
# CELL(abcABC): 1000.00000  1000.00000  1000.00000    90.00000    90.00000    90.00000  Step:          68  Bead:       0 positions{angstrom}  cell{angstrom}
       O -3.14524e+00  1.06853e+00  3.41500e-01
       H -3.32379e+00  2.40924e-01 -6.88523e-02
       H -2.25789e+00  9.75478e-01  6.06589e-01
       H -3.87858e+00  1.89291e+00  7.27168e-01
4
# CELL(abcABC): 1000.00000  1000.00000  1000.00000    90.00000    90.00000    90.00000  Step:          69  Bead:       0 positions{angstrom}  cell{angstrom}
       O -3.14484e+00  1.06957e+00  3.40952e-01
       H -3.32096e+00  2.34443e-01 -6.76533e-02
       H -2.24734e+00  9.75997e-01  6.08008e-01
       H -3.89830e+00  1.88238e+00  7.33255e-01
4
# CELL(abcABC): 1000.00000  1000.00000  1000.00000    90.00000    90.00000    90.00000  Step:          70  Bead:       0 positions{angstrom}  cell{angstrom}
       O -3.14470e+00  1.07045e+00  3.40561e-01
       H -3.31817e+00  2.28987e-01 -6.85008e-02
       H -2.23519e+00  9.77731e-01  6.08985e-01
       H -3.91545e+00  1.87207e+00  7.39334e-01
4
# CELL(abcABC): 1000.00000  1000.00000  1000.00000    90.00000    90.00000    90.00000  Step:          71  Bead:       0 positions{angstrom}  cell{angstrom}
       O -3.14453e+00  1.07133e+00  3.40407e-01
       H -3.31630e+00  2.23435e-01 -7.15655e-02
       H -2.22368e+00  9.79672e-01  6.08841e-01
       H -3.93147e+00  1.86173e+00  7.44988e-01
4
# CELL(abcABC): 1000.00000  1000.00000  1000.00000    90.00000    90.00000    90.00000  Step:          72  Bead:       0 positions{angstrom}  cell{angstrom}
       O -3.14436e+00  1.07196e+00  3.40375e-01
       H -3.31412e+00  2.19858e-01 -7.47990e-02
       H -2.21353e+00  9.82713e-01  6.08354e-01
       H -3.94657e+00  1.85225e+00  7.49220e-01
4
# CELL(abcABC): 1000.00000  1000.00000  1000.00000    90.00000    90.00000    90.00000  Step:          73  Bead:       0 positions{angstrom}  cell{angstrom}
       O -3.14404e+00  1.07243e+00  3.40585e-01
       H -3.31194e+00  2.18299e-01 -7.83475e-02
       H -2.20605e+00  9.87207e-01  6.06503e-01
       H -3.96123e+00  1.84189e+00  7.51276e-01
4
# CELL(abcABC): 1000.00000  1000.00000  1000.00000    90.00000    90.00000    90.00000  Step:          74  Bead:       0 positions{angstrom}  cell{angstrom}
       O -3.14363e+00  1.07261e+00  3.41126e-01
       H -3.30916e+00  2.19264e-01 -8.31545e-02
       H -2.20193e+00  9.92876e-01  6.01934e-01
       H -3.97469e+00  1.83229e+00  7.52071e-01
4
# CELL(abcABC): 1000.00000  1000.00000  1000.00000    90.00000    90.00000    90.00000  Step:          75  Bead:       0 positions{angstrom}  cell{angstrom}
       O -3.14292e+00  1.07261e+00  3.41831e-01
       H -3.30652e+00  2.21751e-01 -8.83428e-02
       H -2.20200e+00  9.99084e-01  5.96577e-01
       H -3.98852e+00  1.82366e+00  7.51424e-01
4
# CELL(abcABC): 1000.00000  1000.00000  1000.00000    90.00000    90.00000    90.00000  Step:          76  Bead:       0 positions{angstrom}  cell{angstrom}
       O -3.14218e+00  1.07226e+00  3.42558e-01
       H -3.30260e+00  2.26938e-01 -9.21816e-02
       H -2.20552e+00  1.00640e+00  5.89925e-01
       H -4.00067e+00  1.81677e+00  7.50375e-01
4
# CELL(abcABC): 1000.00000  1000.00000  1000.00000    90.00000    90.00000    90.00000  Step:          77  Bead:       0 positions{angstrom}  cell{angstrom}
       O -3.14129e+00  1.07168e+00  3.43377e-01
       H -3.29834e+00  2.35065e-01 -9.58322e-02
       H -2.21206e+00  1.01497e+00  5.82783e-01
       H -4.01252e+00  1.80921e+00  7.48158e-01
4
# CELL(abcABC): 1000.00000  1000.00000  1000.00000    90.00000    90.00000    90.00000  Step:          78  Bead:       0 positions{angstrom}  cell{angstrom}
       O -3.14035e+00  1.07098e+00  3.44479e-01
       H -3.29492e+00  2.43811e-01 -1.00507e-01
       H -2.21912e+00  1.02496e+00  5.74673e-01
       H -4.02381e+00  1.80152e+00  7.43453e-01
4
# CELL(abcABC): 1000.00000  1000.00000  1000.00000    90.00000    90.00000    90.00000  Step:          79  Bead:       0 positions{angstrom}  cell{angstrom}
       O -3.13957e+00  1.07032e+00  3.45656e-01
       H -3.29191e+00  2.53638e-01 -1.04277e-01
       H -2.22473e+00  1.03470e+00  5.66050e-01
       H -4.03367e+00  1.79248e+00  7.37166e-01
4
# CELL(abcABC): 1000.00000  1000.00000  1000.00000    90.00000    90.00000    90.00000  Step:          80  Bead:       0 positions{angstrom}  cell{angstrom}
       O -3.13905e+00  1.06968e+00  3.46829e-01
       H -3.28837e+00  2.63426e-01 -1.08776e-01
       H -2.22839e+00  1.04465e+00  5.58526e-01
       H -4.04172e+00  1.78290e+00  7.30572e-01
4
# CELL(abcABC): 1000.00000  1000.00000  1000.00000    90.00000    90.00000    90.00000  Step:          81  Bead:       0 positions{angstrom}  cell{angstrom}
       O -3.13884e+00  1.06897e+00  3.48170e-01
       H -3.28271e+00  2.72920e-01 -1.15025e-01
       H -2.23006e+00  1.05685e+00  5.51517e-01
       H -4.04913e+00  1.77244e+00  7.22550e-01
4
# CELL(abcABC): 1000.00000  1000.00000  1000.00000    90.00000    90.00000    90.00000  Step:          82  Bead:       0 positions{angstrom}  cell{angstrom}
       O -3.13889e+00  1.06852e+00  3.49525e-01
       H -3.27642e+00  2.79922e-01 -1.22005e-01
       H -2.22818e+00  1.06823e+00  5.44948e-01
       H -4.05649e+00  1.76124e+00  7.14580e-01
4
# CELL(abcABC): 1000.00000  1000.00000  1000.00000    90.00000    90.00000    90.00000  Step:          83  Bead:       0 positions{angstrom}  cell{angstrom}
       O -3.13923e+00  1.06815e+00  3.50994e-01
       H -3.27016e+00  2.85043e-01 -1.30231e-01
       H -2.22317e+00  1.08040e+00  5.38919e-01
       H -4.06225e+00  1.74991e+00  7.05517e-01
4
# CELL(abcABC): 1000.00000  1000.00000  1000.00000    90.00000    90.00000    90.00000  Step:          84  Bead:       0 positions{angstrom}  cell{angstrom}
       O -3.13978e+00  1.06792e+00  3.52606e-01
       H -3.26289e+00  2.87063e-01 -1.41136e-01
       H -2.21666e+00  1.09316e+00  5.33204e-01
       H -4.06738e+00  1.73877e+00  6.96560e-01
4
# CELL(abcABC): 1000.00000  1000.00000  1000.00000    90.00000    90.00000    90.00000  Step:          85  Bead:       0 positions{angstrom}  cell{angstrom}