14
# CELL(abcABC): 1000.00000  1000.00000  1000.00000    90.00000    90.00000    90.00000  Step:          88  Bead:       0 positions{angstrom}  cell{angstrom}
       C -6.98045e-01  6.24757e-01 -7.29829e-02
       C  5.93119e-01  1.50858e-01  5.26708e-01
       C -1.76849e+00 -4.53750e-01 -6.73599e-02
       C -1.16908e+00  1.95735e+00  5.81058e-01
       H -1.50298e+00  1.72350e+00  1.59397e+00
       H -2.04763e+00  2.28131e+00  3.64652e-02
       H -4.11571e-01  2.74743e+00  5.76855e-01
       H -1.56357e+00 -1.26064e+00 -7.35299e-01
       H -2.71526e+00 -1.28358e-02 -4.79528e-01
       H -2.10988e+00 -8.52120e-01  9.07258e-01
       H  1.58544e+00  7.06598e-01  2.33081e-01
       H  8.23295e-01 -8.96968e-01  1.60436e-01
       H  4.87149e-01  1.16099e-01  1.59924e+00
       H -4.58252e-01  7.66545e-01 -1.12380e+00
