4
# CELL(abcABC): 1000.00000  1000.00000  1000.00000    90.00000    90.00000    90.00000  Step:         802  Bead:       0 positions{angstrom}  cell{angstrom}
       O -3.12167e+00  1.04195e+00  3.31702e-01
       H -3.10913e+00  5.55422e-01  1.13939e+00
       H -3.96418e+00  1.04306e+00 -8.59392e-02
       H -2.76129e+00  1.93317e+00  3.66987e-01
