4
# CELL(abcABC): 1000.00000  1000.00000  1000.00000    90.00000    90.00000    90.00000  Step:           0  Bead:       0 positions{angstrom}  cell{angstrom}
       O -3.12167e+00  1.04195e+00  3.31702e-01
       H -3.10913e+00  5.55422e-01  1.13939e+00
       H -3.96418e+00  1.04306e+00 -8.59392e-02
       H -2.76129e+00  1.93317e+00  3.66987e-01
4
# CELL(abcABC): 1000.00000  1000.00000  1000.00000    90.00000    90.00000    90.00000  Step:           1  Bead:       0 positions{angstrom}  cell{angstrom}
       O -3.11993e+00  1.04223e+00  3.31112e-01
       H -3.11896e+00  5.47284e-01  1.14517e+00
       H -3.96593e+00  1.04197e+00 -8.58832e-02
       H -2.77735e+00  1.93798e+00  3.70522e-01
4
# CELL(abcABC): 1000.00000  1000.00000  1000.00000    90.00000    90.00000    90.00000  Step:           2  Bead:       0 positions{angstrom}  cell{angstrom}
       O -3.11818e+00  1.04241e+00  3.30480e-01
       H -3.12919e+00  5.38263e-01  1.15340e+00
       H -3.96957e+00  1.04001e+00 -8.78919e-02
       H -2.79122e+00  1.94612e+00  3.74329e-01
4
# CELL(abcABC): 1000.00000  1000.00000  1000.00000    90.00000    90.00000    90.00000  Step:           3  Bead:       0 positions{angstrom}  cell{angstrom}
       O -3.11634e+00  1.04250e+00  3.29802e-01
       H -3.13904e+00  5.27877e-01  1.16403e+00
       H -3.97630e+00  1.03835e+00 -9.10004e-02
       H -2.80386e+00  1.95665e+00  3.77566e-01
4
# CELL(abcABC): 1000.00000  1000.00000  1000.00000    90.00000    90.00000    90.00000  Step:           4  Bead:       0 positions{angstrom}  cell{angstrom}
       O -3.11452e+00  1.04250e+00  3.29297e-01
       H -3.14917e+00  5.17074e-01  1.17274e+00
       H -3.98419e+00  1.03666e+00 -9.57508e-02
       H -2.81468e+00  1.96912e+00  3.81628e-01
4
# CELL(abcABC): 1000.00000  1000.00000  1000.00000    90.00000    90.00000    90.00000  Step:           5  Bead:       0 positions{angstrom}  cell{angstrom}
       O -3.11267e+00  1.04225e+00  3.28966e-01
       H -3.16002e+00  5.07840e-01  1.17915e+00
       H -3.99335e+00  1.03552e+00 -1.00084e-01
       H -2.82407e+00  1.98351e+00  3.84790e-01
4
# CELL(abcABC): 1000.00000  1000.00000  1000.00000    90.00000    90.00000    90.00000  Step:           6  Bead:       0 positions{angstrom}  cell{angstrom}
       O -3.11084e+00  1.04196e+00  3.28826e-01
       H -3.17059e+00  5.00984e-01  1.18176e+00
       H -4.00257e+00  1.03227e+00 -1.05402e-01
       H -2.83342e+00  1.99829e+00  3.89735e-01
4
# CELL(abcABC): 1000.00000  1000.00000  1000.00000    90.00000    90.00000    90.00000  Step:           7  Bead:       0 positions{angstrom}  cell{angstrom}
       O -3.10924e+00  1.04149e+00  3.28637e-01
       H -3.17934e+00  4.96562e-01  1.18240e+00
       H -4.01022e+00  1.02812e+00 -1.09356e-01
       H -2.84241e+00  2.01434e+00  3.96047e-01
4
# CELL(abcABC): 1000.00000  1000.00000  1000.00000    90.00000    90.00000    90.00000  Step:           8  Bead:       0 positions{angstrom}  cell{angstrom}
       O -3.10796e+00  1.04100e+00  3.28629e-01
       H -3.18658e+00  4.94726e-01  1.17896e+00
       H -4.01422e+00  1.02249e+00 -1.12954e-01
       H -2.85147e+00  2.02956e+00  4.03211e-01
4
# CELL(abcABC): 1000.00000  1000.00000  1000.00000    90.00000    90.00000    90.00000  Step:           9  Bead:       0 positions{angstrom}  cell{angstrom}
       O -3.10699e+00  1.04063e+00  3.28590e-01
       H -3.19306e+00  4.94514e-01  1.17343e+00
       H -4.01396e+00  1.01639e+00 -1.14721e-01
       H -2.86067e+00  2.04173e+00  4.11116e-01
4
# CELL(abcABC): 1000.00000  1000.00000  1000.00000    90.00000    90.00000    90.00000  Step:          10  Bead:       0 positions{angstrom}  cell{angstrom}
       O -3.10629e+00  1.04028e+00  3.28746e-01
       H -3.19852e+00  4.96508e-01  1.16433e+00
       H -4.01016e+00  1.01031e+00 -1.15975e-01
       H -2.87012e+00  2.05141e+00  4.19007e-01
4
# CELL(abcABC): 1000.00000  1000.00000  1000.00000    90.00000    90.00000    90.00000  Step:          11  Bead:       0 positions{angstrom}  cell{angstrom}
       O -3.10584e+00  1.04008e+00  3.29081e-01
       H -3.20267e+00  5.01013e-01  1.15185e+00
       H -4.00443e+00  1.00327e+00 -1.16556e-01
       H -2.87876e+00  2.05712e+00  4.26747e-01
4
# CELL(abcABC): 1000.00000  1000.00000  1000.00000    90.00000    90.00000    90.00000  Step:          12  Bead:       0 positions{angstrom}  cell{angstrom}
       O -3.10577e+00  1.04014e+00  3.29479e-01
       H -3.20438e+00  5.06464e-01  1.13812e+00
       H -3.99596e+00  9.94334e-01 -1.17321e-01
       H -2.88658e+00  2.05962e+00  4.34923e-01
4
# CELL(abcABC): 1000.00000  1000.00000  1000.00000    90.00000    90.00000    90.00000  Step:          13  Bead:       0 positions{angstrom}  cell{angstrom}
       O -3.10599e+00  1.04048e+00  3.29786e-01
       H -3.20488e+00  5.12775e-01  1.12514e+00
       H -3.98395e+00  9.84619e-01 -1.17644e-01
       H -2.89464e+00  2.05761e+00  4.43346e-01
4
# CELL(abcABC): 1000.00000  1000.00000  1000.00000    90.00000    90.00000    90.00000  Step:          14  Bead:       0 positions{angstrom}  cell{angstrom}
       O -3.10644e+00  1.04111e+00  3.29923e-01
       H -3.20294e+00  5.18151e-01  1.11469e+00
       H -3.97015e+00  9.74907e-01 -1.18112e-01
       H -2.90333e+00  2.05193e+00  4.52107e-01
4
# CELL(abcABC): 1000.00000  1000.00000  1000.00000    90.00000    90.00000    90.00000  Step:          15  Bead:       0 positions{angstrom}  cell{angstrom}
       O -3.10690e+00  1.04196e+00  3.29664e-01
       H -3.20202e+00  5.21526e-01  1.10987e+00
       H -3.95686e+00  9.65156e-01 -1.19161e-01
       H -2.91012e+00  2.04480e+00  4.62087e-01
4
# CELL(abcABC): 1000.00000  1000.00000  1000.00000    90.00000    90.00000    90.00000  Step:          16  Bead:       0 positions{angstrom}  cell{angstrom}
       O -3.10742e+00  1.04305e+00  3.29222e-01
       H -3.19922e+00  5.22634e-01  1.10887e+00
       H -3.94488e+00  9.55982e-01 -1.21580e-01
       H -2.91665e+00  2.03552e+00  4.72511e-01
4
# CELL(abcABC): 1000.00000  1000.00000  1000.00000    90.00000    90.00000    90.00000  Step:          17  Bead:       0 positions{angstrom}  cell{angstrom}
       O -3.10779e+00  1.04441e+00  3.28626e-01
       H -3.19493e+00  5.22232e-01  1.11231e+00
       H -3.93616e+00  9.47031e-01 -1.26979e-01
       H -2.92383e+00  2.02337e+00  4.83934e-01
4
# CELL(abcABC): 1000.00000  1000.00000  1000.00000    90.00000    90.00000    90.00000  Step:          18  Bead:       0 positions{angstrom}  cell{angstrom}
       O -3.10802e+00  1.04586e+00  3.27931e-01
       H -3.19097e+00  5.20966e-01  1.11957e+00
       H -3.92916e+00  9.37665e-01 -1.34777e-01
       H -2.93121e+00  2.01102e+00  4.95500e-01
4
# CELL(abcABC): 1000.00000  1000.00000  1000.00000    90.00000    90.00000    90.00000  Step:          19  Bead:       0 positions{angstrom}  cell{angstrom}
       O -3.10822e+00  1.04743e+00  3.27194e-01
       H -3.18589e+00  5.18434e-01  1.12989e+00
       H -3.92596e+00  9.27328e-01 -1.45649e-01
       H -2.93632e+00  1.99893e+00  5.07763e-01
4
# CELL(abcABC): 1000.00000  1000.00000  1000.00000    90.00000    90.00000    90.00000  Step:          20  Bead:       0 positions{angstrom}  cell{angstrom}
       O -3.10833e+00  1.04901e+00  3.26559e-01
       H -3.18004e+00  5.15920e-01  1.14002e+00
       H -3.92629e+00  9.16785e-01 -1.58387e-01
       H -2.94010e+00  1.98692e+00  5.20445e-01
4
# CELL(abcABC): 1000.00000  1000.00000  1000.00000    90.00000    90.00000    90.00000  Step:          21  Bead:       0 positions{angstrom}  cell{angstrom}
       O -3.10849e+00  1.05043e+00  3.26090e-01
       H -3.17398e+00  5.13078e-01  1.14886e+00
       H -3.92665e+00  9.06690e-01 -1.71660e-01
       H -2.94319e+00  1.97730e+00  5.32323e-01
4
# CELL(abcABC): 1000.00000  1000.00000  1000.00000    90.00000    90.00000    90.00000  Step:          22  Bead:       0 positions{angstrom}  cell{angstrom}
       O -3.10877e+00  1.05152e+00  3.25846e-01
       H -3.16850e+00  5.10024e-01  1.15742e+00
       H -3.92549e+00  8.96959e-01 -1.87391e-01
       H -2.94545e+00  1.97282e+00  5.43364e-01
4
# CELL(abcABC): 1000.00000  1000.00000  1000.00000    90.00000    90.00000    90.00000  Step:          23  Bead:       0 positions{angstrom}  cell{angstrom}
       O -3.10917e+00  1.05227e+00  3.25950e-01
       H -3.16244e+00  5.08614e-01  1.16324e+00
       H -3.92307e+00  8.88040e-01 -2.02963e-01
       H -2.94743e+00  1.97120e+00  5.51465e-01
4
# CELL(abcABC): 1000.00000  1000.00000  1000.00000    90.00000    90.00000    90.00000  Step:          24  Bead:       0 positions{angstrom}  cell{angstrom}
       O -3.10975e+00  1.05257e+00  3.26232e-01
       H -3.15552e+00  5.07568e-01  1.16620e+00
       H -3.91909e+00  8.80672e-01 -2.17953e-01
       H -2.94923e+00  1.97490e+00  5.59016e-01
4
# CELL(abcABC): 1000.00000  1000.00000  1000.00000    90.00000    90.00000    90.00000  Step:          25  Bead:       0 positions{angstrom}  cell{angstrom}
       O -3.11043e+00  1.05261e+00  3.26594e-01
       H -3.14854e+00  5.06973e-01  1.16688e+00
       H -3.91376e+00  8.73227e-01 -2.31951e-01
       H -2.95077e+00  1.98226e+00  5.66598e-01
4
# CELL(abcABC): 1000.00000  1000.00000  1000.00000    90.00000    90.00000    90.00000  Step:          26  Bead:       0 positions{angstrom}  cell{angstrom}
       O -3.11123e+00  1.05245e+00  3.27092e-01
       H -3.14159e+00  5.07119e-01  1.16370e+00
       H -3.90609e+00  8.66102e-01 -2.44956e-01
       H -2.95259e+00  1.99180e+00  5.74874e-01
4
# CELL(abcABC): 1000.00000  1000.00000  1000.00000    90.00000    90.00000    90.00000  Step:          27  Bead:       0 positions{angstrom}  cell{angstrom}
       O -3.11226e+00  1.05207e+00  3.27763e-01
       H -3.13497e+00  5.09359e-01  1.15694e+00
       H -3.89624e+00  8.58736e-01 -2.56865e-01
       H -2.95271e+00  2.00299e+00  5.82884e-01
4
# CELL(abcABC): 1000.00000  1000.00000  1000.00000    90.00000    90.00000    90.00000  Step:          28  Bead:       0 positions{angstrom}  cell{angstrom}
       O -3.11334e+00  1.05159e+00  3.28493e-01
       H -3.12969e+00  5.10708e-01  1.14773e+00
       H -3.88371e+00  8.52071e-01 -2.66988e-01
       H -2.95347e+00  2.01592e+00  5.90635e-01
4
# CELL(abcABC): 1000.00000  1000.00000  1000.00000    90.00000    90.00000    90.00000  Step:          29  Bead:       0 positions{angstrom}  cell{angstrom}
       O -3.11450e+00  1.05107e+00  3.29332e-01
       H -3.12408e+00  5.12389e-01  1.13560e+00
       H -3.87035e+00  8.45879e-01 -2.75687e-01
       H -2.95392e+00  2.02858e+00  5.98143e-01
4
# CELL(abcABC): 1000.00000  1000.00000  1000.00000    90.00000    90.00000    90.00000  Step:          30  Bead:       0 positions{angstrom}  cell{angstrom}
       O -3.11570e+00  1.05057e+00  3.30187e-01
       H -3.11850e+00  5.14256e-01  1.12386e+00
       H -3.85590e+00  8.40094e-01 -2.82751e-01
       H -2.95495e+00  2.04048e+00  6.03377e-01
4
# CELL(abcABC): 1000.00000  1000.00000  1000.00000    90.00000    90.00000    90.00000  Step:          31  Bead:       0 positions{angstrom}  cell{angstrom}
       O -3.11702e+00  1.05018e+00  3.31112e-01
       H -3.11181e+00  5.14597e-01  1.11315e+00
       H -3.84008e+00  8.35779e-01 -2.89579e-01
       H -2.95657e+00  2.05069e+00  6.06240e-01
4
# CELL(abcABC): 1000.00000  1000.00000  1000.00000    90.00000    90.00000    90.00000  Step:          32  Bead:       0 positions{angstrom}  cell{angstrom}
       O -3.11825e+00  1.05020e+00  3.31837e-01
       H -3.10649e+00  5.10558e-01  1.10498e+00
       H -3.82363e+00  8.32923e-01 -2.94787e-01
       H -2.95879e+00  2.05724e+00  6.08098e-01
4
# CELL(abcABC): 1000.00000  1000.00000  1000.00000    90.00000    90.00000    90.00000  Step:          33  Bead:       0 positions{angstrom}  cell{angstrom}
       O -3.11935e+00  1.05074e+00  3.32445e-01
       H -3.10219e+00  5.02847e-01  1.10049e+00
       H -3.80753e+00  8.29062e-01 -2.99716e-01
       H -2.96166e+00  2.06018e+00  6.07869e-01
4
# CELL(abcABC): 1000.00000  1000.00000  1000.00000    90.00000    90.00000    90.00000  Step:          34  Bead:       0 positions{angstrom}  cell{angstrom}
       O -3.12016e+00  1.05174e+00  3.33192e-01
       H -3.09794e+00  4.91987e-01  1.09814e+00
       H -3.79469e+00  8.24469e-01 -3.05165e-01
       H -2.96590e+00  2.05977e+00  6.03819e-01
4
# CELL(abcABC): 1000.00000  1000.00000  1000.00000    90.00000    90.00000    90.00000  Step:          35  Bead:       0 positions{angstrom}  cell{angstrom}
       O -3.12082e+00  1.05310e+00  3.34041e-01
       H -3.09245e+00  4.78481e-01  1.09674e+00
       H -3.78493e+00  8.20449e-01 -3.11186e-01
       H -2.97069e+00  2.05566e+00  5.97761e-01
4
# CELL(abcABC): 1000.00000  1000.00000  1000.00000    90.00000    90.00000    90.00000  Step:          36  Bead:       0 positions{angstrom}  cell{angstrom}
       O -3.12133e+00  1.05472e+00  3.35063e-01
       H -3.08714e+00  4.63094e-01  1.09563e+00
       H -3.77702e+00  8.17354e-01 -3.19445e-01
       H -2.97585e+00  2.04857e+00  5.90896e-01
4
# CELL(abcABC): 1000.00000  1000.00000  1000.00000    90.00000    90.00000    90.00000  Step:          37  Bead:       0 positions{angstrom}  cell{angstrom}
       O -3.12174e+00  1.05662e+00  3.36160e-01
       H -3.08161e+00  4.47445e-01  1.09617e+00
       H -3.77037e+00  8.13369e-01 -3.29481e-01
       H -2.98154e+00  2.03802e+00  5.82985e-01
4
# CELL(abcABC): 1000.00000  1000.00000  1000.00000    90.00000    90.00000    90.00000  Step:          38  Bead:       0 positions{angstrom}  cell{angstrom}
       O -3.12187e+00  1.05862e+00  3.37619e-01
       H -3.07749e+00  4.31447e-01  1.09439e+00
       H -3.76489e+00  8.08125e-01 -3.40720e-01
       H -2.98898e+00  2.02741e+00  5.72840e-01
4
# CELL(abcABC): 1000.00000  1000.00000  1000.00000    90.00000    90.00000    90.00000  Step:          39  Bead:       0 positions{angstrom}  cell{angstrom}
       O -3.12212e+00  1.06072e+00  3.39146e-01
       H -3.07302e+00  4.15566e-01  1.09131e+00
       H -3.75949e+00  8.01772e-01 -3.51385e-01
       H -2.99494e+00  2.01636e+00  5.62350e-01
4
# CELL(abcABC): 1000.00000  1000.00000  1000.00000    90.00000    90.00000    90.00000  Step:          40  Bead:       0 positions{angstrom}  cell{angstrom}
       O -3.12241e+00  1.06259e+00  3.40620e-01
       H -3.06887e+00  4.01318e-01  1.08682e+00
       H -3.75361e+00  7.95859e-01 -3.60123e-01
       H -3.00030e+00  2.00682e+00  5.52178e-01
4
# CELL(abcABC): 1000.00000  1000.00000  1000.00000    90.00000    90.00000    90.00000  Step:          41  Bead:       0 positions{angstrom}  cell{angstrom}
       O -3.12276e+00  1.06412e+00  3.42128e-01
       H -3.06531e+00  3.89929e-01  1.07922e+00
       H -3.74641e+00  7.90832e-01 -3.67762e-01
       H -3.00562e+00  1.99903e+00  5.43474e-01
4
# CELL(abcABC): 1000.00000  1000.00000  1000.00000    90.00000    90.00000    90.00000  Step:          42  Bead:       0 positions{angstrom}  cell{angstrom}
       O -3.12330e+00  1.06535e+00  3.43726e-01
       H -3.06052e+00  3.79144e-01  1.06864e+00
       H -3.73791e+00  7.86516e-01 -3.73925e-01
       H -3.01034e+00  1.99455e+00  5.34868e-01
4
# CELL(abcABC): 1000.00000  1000.00000  1000.00000    90.00000    90.00000    90.00000  Step:          43  Bead:       0 positions{angstrom}  cell{angstrom}
       O -3.12393e+00  1.06603e+00  3.45333e-01
       H -3.05611e+00  3.71775e-01  1.05525e+00
       H -3.72809e+00  7.84291e-01 -3.78599e-01
       H -3.01449e+00  1.99329e+00  5.27423e-01
4
# CELL(abcABC): 1000.00000  1000.00000  1000.00000    90.00000    90.00000    90.00000  Step:          44  Bead:       0 positions{angstrom}  cell{angstrom}
       O -3.12466e+00  1.06626e+00  3.46897e-01
       H -3.05150e+00  3.66142e-01  1.03931e+00
       H -3.71705e+00  7.82409e-01 -3.82557e-01
       H -3.01864e+00  1.99726e+00  5.22494e-01
4
# CELL(abcABC): 1000.00000  1000.00000  1000.00000    90.00000    90.00000    90.00000  Step:          45  Bead:       0 positions{angstrom}  cell{angstrom}
       O -3.12540e+00  1.06606e+00  3.48442e-01
       H -3.04729e+00  3.62593e-01  1.02153e+00
       H -3.70435e+00  7.80587e-01 -3.86347e-01
       H -3.02382e+00  2.00573e+00  5.19533e-01
4
# CELL(abcABC): 1000.00000  1000.00000  1000.00000    90.00000    90.00000    90.00000  Step:          46  Bead:       0 positions{angstrom}  cell{angstrom}
       O -3.12628e+00  1.06556e+00  3.49905e-01
       H -3.04282e+00  3.60863e-01  1.00315e+00
       H -3.69105e+00  7.78480e-01 -3.89977e-01
       H -3.02761e+00  2.01761e+00  5.18330e-01
4
# CELL(abcABC): 1000.00000  1000.00000  1000.00000    90.00000    90.00000    90.00000  Step:          47  Bead:       0 positions{angstrom}  cell{angstrom}
       O -3.12722e+00  1.06475e+00  3.51339e-01
       H -3.03772e+00  3.59066e-01  9.85991e-01
       H -3.67716e+00  7.77026e-01 -3.94253e-01
       H -3.03158e+00  2.03367e+00  5.16992e-01
4
# CELL(abcABC): 1000.00000  1000.00000  1000.00000    90.00000    90.00000    90.00000  Step:          48  Bead:       0 positions{angstrom}  cell{angstrom}
       O -3.12823e+00  1.06401e+00  3.52579e-01
       H -3.03130e+00  3.55382e-01  9.71217e-01
       H -3.66313e+00  7.76447e-01 -3.99477e-01
       H -3.03610e+00  2.04972e+00  5.17307e-01
4
# CELL(abcABC): 1000.00000  1000.00000  1000.00000    90.00000    90.00000    90.00000  Step:          49  Bead:       0 positions{angstrom}  cell{angstrom}
       O -3.12934e+00  1.06339e+00  3.53505e-01
       H -3.02378e+00  3.49552e-01  9.59882e-01
       H -3.64802e+00  7.75718e-01 -4.05178e-01
       H -3.04111e+00  2.06613e+00  5.19654e-01
4
# CELL(abcABC): 1000.00000  1000.00000  1000.00000    90.00000    90.00000    90.00000  Step:          50  Bead:       0 positions{angstrom}  cell{angstrom}
       O -3.13032e+00  1.06307e+00  3.54341e-01
       H -3.01546e+00  3.41792e-01  9.51442e-01
       H -3.63504e+00  7.74242e-01 -4.11798e-01
       H -3.04678e+00  2.08044e+00  5.21431e-01
4
# CELL(abcABC): 1000.00000  1000.00000  1000.00000    90.00000    90.00000    90.00000  Step:          51  Bead:       0 positions{angstrom}  cell{angstrom}
       O -3.13134e+00  1.06303e+00  3.55025e-01
       H -3.00641e+00  3.31647e-01  9.45678e-01
       H -3.62294e+00  7.73003e-01 -4.19731e-01
       H -3.05171e+00  2.09241e+00  5.24274e-01
4
# CELL(abcABC): 1000.00000  1000.00000  1000.00000    90.00000    90.00000    90.00000  Step:          52  Bead:       0 positions{angstrom}  cell{angstrom}
       O -3.13236e+00  1.06339e+00  3.55688e-01
       H -2.99678e+00  3.19853e-01  9.42581e-01
       H -3.61173e+00  7.71161e-01 -4.29961e-01
       H -3.05641e+00  2.10033e+00  5.27087e-01
4
# CELL(abcABC): 1000.00000  1000.00000  1000.00000    90.00000    90.00000    90.00000  Step:          53  Bead:       0 positions{angstrom}  cell{angstrom}
       O -3.13341e+00  1.06399e+00  3.56213e-01
       H -2.98582e+00  3.08066e-01  9.40500e-01
       H -3.60128e+00  7.70861e-01 -4.40389e-01
       H -3.06118e+00  2.10292e+00  5.31248e-01
4
# CELL(abcABC): 1000.00000  1000.00000  1000.00000    90.00000    90.00000    90.00000  Step:          54  Bead:       0 positions{angstrom}  cell{angstrom}
       O -3.13444e+00  1.06488e+00  3.56393e-01
       H -2.97442e+00  2.95880e-01  9.40673e-01
       H -3.59154e+00  7.71569e-01 -4.50461e-01
       H -3.06587e+00  2.10028e+00  5.38292e-01
4
# CELL(abcABC): 1000.00000  1000.00000  1000.00000    90.00000    90.00000    90.00000  Step:          55  Bead:       0 positions{angstrom}  cell{angstrom}
       O -3.13553e+00  1.06590e+00  3.56478e-01
       H -2.96338e+00  2.85479e-01  9.41937e-01
       H -3.58183e+00  7.72833e-01 -4.59870e-01
       H -3.06939e+00  2.09316e+00  5.45086e-01
4
# CELL(abcABC): 1000.00000  1000.00000  1000.00000    90.00000    90.00000    90.00000  Step:          56  Bead:       0 positions{angstrom}  cell{angstrom}
       O -3.13669e+00  1.06691e+00  3.56523e-01
       H -2.95019e+00  2.78005e-01  9.43368e-01
       H -3.57230e+00  7.74398e-01 -4.70038e-01
       H -3.07370e+00  2.08304e+00  5.53116e-01
4
# CELL(abcABC): 1000.00000  1000.00000  1000.00000    90.00000    90.00000    90.00000  Step:          57  Bead:       0 positions{angstrom}  cell{angstrom}
       O -3.13785e+00  1.06780e+00  3.56490e-01
       H -2.93564e+00  2.74575e-01  9.44273e-01
       H -3.56367e+00  7.76165e-01 -4.78459e-01
       H -3.07845e+00  2.07056e+00  5.61155e-01
4
# CELL(abcABC): 1000.00000  1000.00000  1000.00000    90.00000    90.00000    90.00000  Step:          58  Bead:       0 positions{angstrom}  cell{angstrom}
       O -3.13910e+00  1.06857e+00  3.56438e-01
       H -2.92035e+00  2.74351e-01  9.43555e-01
       H -3.55435e+00  7.78619e-01 -4.85142e-01
       H -3.08319e+00  2.05606e+00  5.69381e-01
4
# CELL(abcABC): 1000.00000  1000.00000  1000.00000    90.00000    90.00000    90.00000  Step:          59  Bead:       0 positions{angstrom}  cell{angstrom}
       O -3.14043e+00  1.06906e+00  3.56256e-01
       H -2.90459e+00  2.78422e-01  9.41229e-01
       H -3.54430e+00  7.82247e-01 -4.88958e-01
       H -3.08787e+00  2.04061e+00  5.78418e-01
4
# CELL(abcABC): 1000.00000  1000.00000  1000.00000    90.00000    90.00000    90.00000  Step:          60  Bead:       0 positions{angstrom}  cell{angstrom}
       O -3.14183e+00  1.06931e+00  3.56117e-01
       H -2.89035e+00  2.86221e-01  9.37228e-01
       H -3.53308e+00  7.85800e-01 -4.93223e-01
       H -3.09113e+00  2.02536e+00  5.88884e-01
4
# CELL(abcABC): 1000.00000  1000.00000  1000.00000    90.00000    90.00000    90.00000  Step:          61  Bead:       0 positions{angstrom}  cell{angstrom}
       O -3.14336e+00  1.06927e+00  3.56003e-01
       H -2.87570e+00  2.97189e-01  9.31366e-01
       H -3.52026e+00  7.89502e-01 -4.97857e-01
       H -3.09433e+00  2.01127e+00  6.01188e-01
4
# CELL(abcABC): 1000.00000  1000.00000  1000.00000    90.00000    90.00000    90.00000  Step:          62  Bead:       0 positions{angstrom}  cell{angstrom}
       O -3.14485e+00  1.06899e+00  3.56010e-01
       H -2.86223e+00  3.10345e-01  9.23769e-01
       H -3.50840e+00  7.92914e-01 -5.02351e-01
       H -3.09599e+00  1.99916e+00  6.13177e-01
4
# CELL(abcABC): 1000.00000  1000.00000  1000.00000    90.00000    90.00000    90.00000  Step:          63  Bead:       0 positions{angstrom}  cell{angstrom}
       O -3.14633e+00  1.06829e+00  3.55827e-01
       H -2.84864e+00  3.26567e-01  9.15874e-01
       H -3.49679e+00  7.95614e-01 -5.06600e-01
       H -3.09781e+00  1.99130e+00  6.28217e-01
4
# CELL(abcABC): 1000.00000  1000.00000  1000.00000    90.00000    90.00000    90.00000  Step:          64  Bead:       0 positions{angstrom}  cell{angstrom}
       O -3.14788e+00  1.06734e+00  3.55543e-01
       H -2.83370e+00  3.43995e-01  9.08889e-01
       H -3.48489e+00  7.97981e-01 -5.10632e-01
       H -3.10005e+00  1.98658e+00  6.43745e-01
4
# CELL(abcABC): 1000.00000  1000.00000  1000.00000    90.00000    90.00000    90.00000  Step:          65  Bead:       0 positions{angstrom}  cell{angstrom}
       O -3.14948e+00  1.06618e+00  3.55201e-01
       H -2.81904e+00  3.61737e-01  9.01449e-01
       H -3.47251e+00  8.01371e-01 -5.14879e-01
       H -3.10161e+00  1.98396e+00  6.60855e-01
4
# CELL(abcABC): 1000.00000  1000.00000  1000.00000    90.00000    90.00000    90.00000  Step:          66  Bead:       0 positions{angstrom}  cell{angstrom}
       O -3.15117e+00  1.06487e+00  3.54672e-01
       H -2.80352e+00  3.80440e-01  8.96101e-01
       H -3.46024e+00  8.02988e-01 -5.19135e-01
       H -3.10259e+00  1.98447e+00  6.78863e-01
4
# CELL(abcABC): 1000.00000  1000.00000  1000.00000    90.00000    90.00000    90.00000  Step:          67  Bead:       0 positions{angstrom}  cell{angstrom}
       O -3.15287e+00  1.06371e+00  3.54037e-01
       H -2.78624e+00  3.95459e-01  8.92075e-01
       H -3.44775e+00  8.04350e-01 -5.23410e-01
       H -3.10528e+00  1.98637e+00  6.97248e-01
4
# CELL(abcABC): 1000.00000  1000.00000  1000.00000    90.00000    90.00000    90.00000  Step:          68  Bead:       0 positions{angstrom}  cell{angstrom}
       O -3.15470e+00  1.06270e+00  3.53466e-01
       H -2.76647e+00  4.06575e-01  8.90225e-01
       H -3.43523e+00  8.05435e-01 -5.30028e-01
       H -3.10859e+00  1.99021e+00  7.14766e-01
4
# CELL(abcABC): 1000.00000  1000.00000  1000.00000    90.00000    90.00000    90.00000  Step:          69  Bead:       0 positions{angstrom}  cell{angstrom}
       O -3.15655e+00  1.06206e+00  3.52676e-01
       H -2.74512e+00  4.12293e-01  8.92315e-01
       H -3.42361e+00  8.06341e-01 -5.36456e-01
       H -3.11223e+00  1.99387e+00  7.31656e-01
4
# CELL(abcABC): 1000.00000  1000.00000  1000.00000    90.00000    90.00000    90.00000  Step:          70  Bead:       0 positions{angstrom}  cell{angstrom}
       O -3.15860e+00  1.06152e+00  3.51925e-01
       H -2.72188e+00  4.15301e-01  8.94972e-01
       H -3.41192e+00  8.07855e-01 -5.43809e-01
       H -3.11455e+00  1.99785e+00  7.48272e-01
4
# CELL(abcABC): 1000.00000  1000.00000  1000.00000    90.00000    90.00000    90.00000  Step:          71  Bead:       0 positions{angstrom}  cell{angstrom}
       O -3.16062e+00  1.06128e+00  3.51364e-01
       H -2.69848e+00  4.14799e-01  8.96664e-01
       H -3.40067e+00  8.08844e-01 -5.52084e-01
       H -3.11714e+00  2.00115e+00  7.63762e-01
4
# CELL(abcABC): 1000.00000  1000.00000  1000.00000    90.00000    90.00000    90.00000  Step:          72  Bead:       0 positions{angstrom}  cell{angstrom}
       O -3.16265e+00  1.06111e+00  3.50947e-01
       H -2.67472e+00  4.13200e-01  8.97943e-01
       H -3.38909e+00  8.10204e-01 -5.59736e-01
       H -3.12036e+00  2.00410e+00  7.76752e-01
4
# CELL(abcABC): 1000.00000  1000.00000  1000.00000    90.00000    90.00000    90.00000  Step:          73  Bead:       0 positions{angstrom}  cell{angstrom}
       O -3.16454e+00  1.06108e+00  3.50858e-01
       H -2.65196e+00  4.11134e-01  8.97351e-01
       H -3.37732e+00  8.12332e-01 -5.67166e-01
       H -3.12478e+00  2.00447e+00  7.86178e-01
4
# CELL(abcABC): 1000.00000  1000.00000  1000.00000    90.00000    90.00000    90.00000  Step:          74  Bead:       0 positions{angstrom}  cell{angstrom}
       O -3.16634e+00  1.06105e+00  3.51230e-01
       H -2.63052e+00  4.09735e-01  8.92930e-01
       H -3.36531e+00  8.15072e-01 -5.75232e-01
       H -3.12972e+00  2.00368e+00  7.92773e-01
4
# CELL(abcABC): 1000.00000  1000.00000  1000.00000    90.00000    90.00000    90.00000  Step:          75  Bead:       0 positions{angstrom}  cell{angstrom}
       O -3.16781e+00  1.06105e+00  3.51912e-01
       H -2.61180e+00  4.08587e-01  8.84936e-01
       H -3.35361e+00  8.17997e-01 -5.81562e-01
       H -3.13680e+00  2.00188e+00  7.96255e-01
4
# CELL(abcABC): 1000.00000  1000.00000  1000.00000    90.00000    90.00000    90.00000  Step:          76  Bead:       0 positions{angstrom}  cell{angstrom}
       O -3.16916e+00  1.06088e+00  3.52771e-01
       H -2.59487e+00  4.09372e-01  8.74817e-01
       H -3.34181e+00  8.21919e-01 -5.86481e-01
       H -3.14402e+00  1.99986e+00  7.97663e-01
4
# CELL(abcABC): 1000.00000  1000.00000  1000.00000    90.00000    90.00000    90.00000  Step:          77  Bead:       0 positions{angstrom}  cell{angstrom}
       O -3.17022e+00  1.06060e+00  3.53871e-01
       H -2.58090e+00  4.13019e-01  8.61522e-01
       H -3.33030e+00  8.27188e-01 -5.89253e-01
       H -3.15278e+00  1.99537e+00  7.96276e-01
4
# CELL(abcABC): 1000.00000  1000.00000  1000.00000    90.00000    90.00000    90.00000  Step:          78  Bead:       0 positions{angstrom}  cell{angstrom}
       O -3.17100e+00  1.06024e+00  3.55380e-01
       H -2.57096e+00  4.17939e-01  8.44382e-01
       H -3.31783e+00  8.34182e-01 -5.90719e-01
       H -3.16285e+00  1.98925e+00  7.90926e-01
4
# CELL(abcABC): 1000.00000  1000.00000  1000.00000    90.00000    90.00000    90.00000  Step:          79  Bead:       0 positions{angstrom}  cell{angstrom}
       O -3.17163e+00  1.05987e+00  3.57054e-01
       H -2.56425e+00  4.25067e-01  8.26145e-01
       H -3.30397e+00  8.41405e-01 -5.90934e-01
       H -3.17335e+00  1.98078e+00  7.82799e-01
4
# CELL(abcABC): 1000.00000  1000.00000  1000.00000    90.00000    90.00000    90.00000  Step:          80  Bead:       0 positions{angstrom}  cell{angstrom}
       O -3.17219e+00  1.05940e+00  3.58757e-01
       H -2.55921e+00  4.33677e-01  8.06289e-01
       H -3.28962e+00  8.49414e-01 -5.88860e-01
       H -3.18388e+00  1.97154e+00  7.73558e-01
4
# CELL(abcABC): 1000.00000  1000.00000  1000.00000    90.00000    90.00000    90.00000  Step:          81  Bead:       0 positions{angstrom}  cell{angstrom}
       O -3.17269e+00  1.05868e+00  3.60595e-01
       H -2.55331e+00  4.43690e-01  7.85077e-01
       H -3.27586e+00  8.60302e-01 -5.85807e-01
       H -3.19558e+00  1.96203e+00  7.62532e-01
4
# CELL(abcABC): 1000.00000  1000.00000  1000.00000    90.00000    90.00000    90.00000  Step:          82  Bead:       0 positions{angstrom}  cell{angstrom}
       O -3.17312e+00  1.05798e+00  3.62352e-01
       H -2.54702e+00  4.52866e-01  7.64837e-01
       H -3.26191e+00  8.70940e-01 -5.82628e-01
       H -3.20900e+00  1.95338e+00  7.51718e-01
4
# CELL(abcABC): 1000.00000  1000.00000  1000.00000    90.00000    90.00000    90.00000  Step:          83  Bead:       0 positions{angstrom}  cell{angstrom}
       O -3.17357e+00  1.05708e+00  3.64066e-01
       H -2.54000e+00  4.61487e-01  7.46114e-01
       H -3.24831e+00  8.82856e-01 -5.79877e-01
       H -3.22252e+00  1.94713e+00  7.40478e-01
4
# CELL(abcABC): 1000.00000  1000.00000  1000.00000    90.00000    90.00000    90.00000  Step:          84  Bead:       0 positions{angstrom}  cell{angstrom}
       O -3.17402e+00  1.05604e+00  3.65725e-01
       H -2.53033e+00  4.67761e-01  7.28219e-01
       H -3.23627e+00  8.95784e-01 -5.78283e-01
       H -3.23705e+00  1.94440e+00  7.30445e-01
4
# CELL(abcABC): 1000.00000  1000.00000  1000.00000    90.00000    90.00000    90.00000  Step:          85  Bead:       0 positions{angstrom}  cell{angstrom}