4
# CELL(abcABC): 1000.00000  1000.00000  1000.00000    90.00000    90.00000    90.00000  Step:           0  Bead:       0 positions{angstrom}  cell{angstrom}
       O -3.14800e+00  1.06980e+00  3.41729e-01
       H -3.35478e+00  2.51092e-01  7.32603e-01
       H -2.70689e+00  1.55883e+00  1.01795e+00
       H -3.35489e+00  1.27920e+00 -4.89299e-01
4
# CELL(abcABC): 1000.00000  1000.00000  1000.00000    90.00000    90.00000    90.00000  Step:           1  Bead:       0 positions{angstrom}  cell{angstrom}
       O -3.14630e+00  1.07010e+00  3.41226e-01
       H -3.36493e+00  2.42961e-01  7.37072e-01
       H -2.70648e+00  1.55860e+00  1.01889e+00
       H -3.37213e+00  1.28279e+00 -4.86719e-01
4
# CELL(abcABC): 1000.00000  1000.00000  1000.00000    90.00000    90.00000    90.00000  Step:           2  Bead:       0 positions{angstrom}  cell{angstrom}
       O -3.14469e+00  1.07030e+00  3.40842e-01
       H -3.37566e+00  2.34870e-01  7.41762e-01
       H -2.70395e+00  1.55921e+00  1.01945e+00
       H -3.38954e+00  1.28703e+00 -4.85887e-01
4
# CELL(abcABC): 1000.00000  1000.00000  1000.00000    90.00000    90.00000    90.00000  Step:           3  Bead:       0 positions{angstrom}  cell{angstrom}
       O -3.14307e+00  1.07038e+00  3.40556e-01
       H -3.38575e+00  2.26986e-01  7.47309e-01
       H -2.70125e+00  1.56168e+00  1.02023e+00
       H -3.40790e+00  1.29119e+00 -4.87665e-01
4
# CELL(abcABC): 1000.00000  1000.00000  1000.00000    90.00000    90.00000    90.00000  Step:           4  Bead:       0 positions{angstrom}  cell{angstrom}
       O -3.14152e+00  1.07029e+00  3.40566e-01
       H -3.39545e+00  2.20654e-01  7.50275e-01
       H -2.69761e+00  1.56541e+00  1.02003e+00
       H -3.42629e+00  1.29531e+00 -4.90589e-01
4
# CELL(abcABC): 1000.00000  1000.00000  1000.00000    90.00000    90.00000    90.00000  Step:           5  Bead:       0 positions{angstrom}  cell{angstrom}
       O -3.13997e+00  1.06982e+00  3.40860e-01
       H -3.40486e+00  2.18046e-01  7.51134e-01
       H -2.69451e+00  1.57067e+00  1.02016e+00
       H -3.44469e+00  1.30007e+00 -4.96247e-01
4
# CELL(abcABC): 1000.00000  1000.00000  1000.00000    90.00000    90.00000    90.00000  Step:           6  Bead:       0 positions{angstrom}  cell{angstrom}
       O -3.13839e+00  1.06918e+00  3.41441e-01
       H -3.41283e+00  2.19847e-01  7.49115e-01
       H -2.69217e+00  1.57435e+00  1.01845e+00
       H -3.46404e+00  1.30484e+00 -5.01738e-01
4
# CELL(abcABC): 1000.00000  1000.00000  1000.00000    90.00000    90.00000    90.00000  Step:           7  Bead:       0 positions{angstrom}  cell{angstrom}
       O -3.13698e+00  1.06820e+00  3.42050e-01
       H -3.41780e+00  2.25697e-01  7.46630e-01
       H -2.69019e+00  1.57743e+00  1.01674e+00
       H -3.48352e+00  1.31135e+00 -5.07211e-01
4
# CELL(abcABC): 1000.00000  1000.00000  1000.00000    90.00000    90.00000    90.00000  Step:           8  Bead:       0 positions{angstrom}  cell{angstrom}
       O -3.13577e+00  1.06707e+00  3.42885e-01
       H -3.42022e+00  2.34998e-01  7.42121e-01
       H -2.68741e+00  1.57905e+00  1.01366e+00
       H -3.50311e+00  1.31844e+00 -5.12881e-01
4
# CELL(abcABC): 1000.00000  1000.00000  1000.00000    90.00000    90.00000    90.00000  Step:           9  Bead:       0 positions{angstrom}  cell{angstrom}
       O -3.13472e+00  1.06593e+00  3.43691e-01
       H -3.42118e+00  2.45756e-01  7.37997e-01
       H -2.68371e+00  1.58009e+00  1.01064e+00
       H -3.52246e+00  1.32468e+00 -5.18531e-01
4
# CELL(abcABC): 1000.00000  1000.00000  1000.00000    90.00000    90.00000    90.00000  Step:          10  Bead:       0 positions{angstrom}  cell{angstrom}
       O -3.13379e+00  1.06474e+00  3.44647e-01
       H -3.42084e+00  2.57396e-01  7.33087e-01
       H -2.67987e+00  1.58088e+00  1.00647e+00
       H -3.54140e+00  1.33118e+00 -5.24614e-01
4
# CELL(abcABC): 1000.00000  1000.00000  1000.00000    90.00000    90.00000    90.00000  Step:          11  Bead:       0 positions{angstrom}  cell{angstrom}
       O -3.13296e+00  1.06369e+00  3.45690e-01
       H -3.41945e+00  2.69006e-01  7.27706e-01
       H -2.67725e+00  1.58035e+00  1.00164e+00
       H -3.55862e+00  1.33683e+00 -5.30971e-01
4
# CELL(abcABC): 1000.00000  1000.00000  1000.00000    90.00000    90.00000    90.00000  Step:          12  Bead:       0 positions{angstrom}  cell{angstrom}
       O -3.13236e+00  1.06294e+00  3.46664e-01
       H -3.41644e+00  2.77886e-01  7.23778e-01
       H -2.67446e+00  1.57763e+00  9.95895e-01
       H -3.57394e+00  1.34254e+00 -5.36748e-01
4
# CELL(abcABC): 1000.00000  1000.00000  1000.00000    90.00000    90.00000    90.00000  Step:          13  Bead:       0 positions{angstrom}  cell{angstrom}
       O -3.13193e+00  1.06255e+00  3.47380e-01
       H -3.41349e+00  2.83247e-01  7.22706e-01
       H -2.66982e+00  1.57404e+00  9.90735e-01
       H -3.58830e+00  1.34699e+00 -5.41888e-01
4
# CELL(abcABC): 1000.00000  1000.00000  1000.00000    90.00000    90.00000    90.00000  Step:          14  Bead:       0 positions{angstrom}  cell{angstrom}
       O -3.13169e+00  1.06252e+00  3.47753e-01
       H -3.40960e+00  2.83295e-01  7.25232e-01
       H -2.66384e+00  1.57060e+00  9.86517e-01
       H -3.60204e+00  1.35078e+00 -5.46109e-01
4
# CELL(abcABC): 1000.00000  1000.00000  1000.00000    90.00000    90.00000    90.00000  Step:          15  Bead:       0 positions{angstrom}  cell{angstrom}
       O -3.13152e+00  1.06276e+00  3.47573e-01
       H -3.40809e+00  2.77831e-01  7.33188e-01
       H -2.65748e+00  1.56744e+00  9.83691e-01
       H -3.61263e+00  1.35565e+00 -5.48391e-01
4
# CELL(abcABC): 1000.00000  1000.00000  1000.00000    90.00000    90.00000    90.00000  Step:          16  Bead:       0 positions{angstrom}  cell{angstrom}
       O -3.13156e+00  1.06320e+00  3.47082e-01
       H -3.40559e+00  2.68271e-01  7.43522e-01
       H -2.65028e+00  1.56528e+00  9.82174e-01
       H -3.62171e+00  1.36038e+00 -5.49414e-01
4
# CELL(abcABC): 1000.00000  1000.00000  1000.00000    90.00000    90.00000    90.00000  Step:          17  Bead:       0 positions{angstrom}  cell{angstrom}
       O -3.13170e+00  1.06379e+00  3.46341e-01
       H -3.40186e+00  2.57267e-01  7.55889e-01
       H -2.64324e+00  1.56374e+00  9.80746e-01
       H -3.63026e+00  1.36355e+00 -5.48586e-01
4
# CELL(abcABC): 1000.00000  1000.00000  1000.00000    90.00000    90.00000    90.00000  Step:          18  Bead:       0 positions{angstrom}  cell{angstrom}
       O -3.13201e+00  1.06432e+00  3.45434e-01
       H -3.39806e+00  2.47103e-01  7.69219e-01
       H -2.63443e+00  1.56212e+00  9.80002e-01
       H -3.63792e+00  1.36685e+00 -5.46783e-01
4
# CELL(abcABC): 1000.00000  1000.00000  1000.00000    90.00000    90.00000    90.00000  Step:          19  Bead:       0 positions{angstrom}  cell{angstrom}
       O -3.13262e+00  1.06484e+00  3.44444e-01
       H -3.39230e+00  2.38510e-01  7.82795e-01
       H -2.62598e+00  1.55969e+00  9.78892e-01
       H -3.64235e+00  1.36970e+00 -5.43522e-01
4
# CELL(abcABC): 1000.00000  1000.00000  1000.00000    90.00000    90.00000    90.00000  Step:          20  Bead:       0 positions{angstrom}  cell{angstrom}
       O -3.13345e+00  1.06526e+00  3.43536e-01
       H -3.38459e+00  2.33370e-01  7.93850e-01
       H -2.61831e+00  1.55701e+00  9.77897e-01
       H -3.64459e+00  1.37083e+00 -5.39172e-01
4
# CELL(abcABC): 1000.00000  1000.00000  1000.00000    90.00000    90.00000    90.00000  Step:          21  Bead:       0 positions{angstrom}  cell{angstrom}
       O -3.13456e+00  1.06550e+00  3.42804e-01
       H -3.37537e+00  2.31454e-01  8.01933e-01
       H -2.60905e+00  1.55445e+00  9.77335e-01
       H -3.64542e+00  1.37142e+00 -5.35083e-01
4
# CELL(abcABC): 1000.00000  1000.00000  1000.00000    90.00000    90.00000    90.00000  Step:          22  Bead:       0 positions{angstrom}  cell{angstrom}
       O -3.13593e+00  1.06549e+00  3.42343e-01
       H -3.36545e+00  2.32621e-01  8.08772e-01
       H -2.59790e+00  1.55155e+00  9.74140e-01
       H -3.64481e+00  1.37334e+00 -5.31407e-01
4
# CELL(abcABC): 1000.00000  1000.00000  1000.00000    90.00000    90.00000    90.00000  Step:          23  Bead:       0 positions{angstrom}  cell{angstrom}
       O -3.13749e+00  1.06530e+00  3.42292e-01
       H -3.35380e+00  2.38169e-01  8.12708e-01
       H -2.58627e+00  1.54842e+00  9.69874e-01
       H -3.64335e+00  1.37389e+00 -5.30264e-01
4
# CELL(abcABC): 1000.00000  1000.00000  1000.00000    90.00000    90.00000    90.00000  Step:          24  Bead:       0 positions{angstrom}  cell{angstrom}
       O -3.13919e+00  1.06490e+00  3.42486e-01
       H -3.34041e+00  2.45917e-01  8.14409e-01
       H -2.57486e+00  1.54553e+00  9.64041e-01
       H -3.64119e+00  1.37542e+00 -5.29213e-01
4
# CELL(abcABC): 1000.00000  1000.00000  1000.00000    90.00000    90.00000    90.00000  Step:          25  Bead:       0 positions{angstrom}  cell{angstrom}
       O -3.14091e+00  1.06454e+00  3.42812e-01
       H -3.32638e+00  2.54813e-01  8.15211e-01
       H -2.56461e+00  1.54111e+00  9.56331e-01
       H -3.63819e+00  1.37673e+00 -5.27484e-01
4
# CELL(abcABC): 1000.00000  1000.00000  1000.00000    90.00000    90.00000    90.00000  Step:          26  Bead:       0 positions{angstrom}  cell{angstrom}
       O -3.14262e+00  1.06429e+00  3.43295e-01
       H -3.31218e+00  2.63902e-01  8.14210e-01
       H -2.55493e+00  1.53559e+00  9.46329e-01
       H -3.63484e+00  1.37715e+00 -5.24146e-01
4
# CELL(abcABC): 1000.00000  1000.00000  1000.00000    90.00000    90.00000    90.00000  Step:          27  Bead:       0 positions{angstrom}  cell{angstrom}
       O -3.14441e+00  1.06413e+00  3.43926e-01
       H -3.29851e+00  2.73316e-01  8.12175e-01
       H -2.54602e+00  1.52865e+00  9.34050e-01
       H -3.62903e+00  1.37719e+00 -5.19844e-01
4
# CELL(abcABC): 1000.00000  1000.00000  1000.00000    90.00000    90.00000    90.00000  Step:          28  Bead:       0 positions{angstrom}  cell{angstrom}
       O -3.14610e+00  1.06416e+00  3.44539e-01
       H -3.28673e+00  2.78928e-01  8.10465e-01
       H -2.53704e+00  1.52168e+00  9.20425e-01
       H -3.62302e+00  1.37806e+00 -5.14234e-01
4
# CELL(abcABC): 1000.00000  1000.00000  1000.00000    90.00000    90.00000    90.00000  Step:          29  Bead:       0 positions{angstrom}  cell{angstrom}
       O -3.14775e+00  1.06437e+00  3.45145e-01
       H -3.27545e+00  2.81411e-01  8.08405e-01
       H -2.52920e+00  1.51494e+00  9.05611e-01
       H -3.61580e+00  1.37889e+00 -5.06985e-01
4
# CELL(abcABC): 1000.00000  1000.00000  1000.00000    90.00000    90.00000    90.00000  Step:          30  Bead:       0 positions{angstrom}  cell{angstrom}
       O -3.14937e+00  1.06471e+00  3.45636e-01
       H -3.26519e+00  2.80674e-01  8.08564e-01
       H -2.52139e+00  1.50897e+00  8.90540e-01
       H -3.60820e+00  1.38027e+00 -4.99869e-01
4
# CELL(abcABC): 1000.00000  1000.00000  1000.00000    90.00000    90.00000    90.00000  Step:          31  Bead:       0 positions{angstrom}  cell{angstrom}
       O -3.15110e+00  1.06512e+00  3.46076e-01
       H -3.25485e+00  2.75752e-01  8.10424e-01
       H -2.51232e+00  1.50545e+00  8.74635e-01
       H -3.60024e+00  1.38215e+00 -4.92809e-01
4
# CELL(abcABC): 1000.00000  1000.00000  1000.00000    90.00000    90.00000    90.00000  Step:          32  Bead:       0 positions{angstrom}  cell{angstrom}
       O -3.15278e+00  1.06576e+00  3.46230e-01
       H -3.24689e+00  2.65180e-01  8.14092e-01
       H -2.50184e+00  1.50488e+00  8.60063e-01
       H -3.59199e+00  1.38323e+00 -4.84353e-01
4
# CELL(abcABC): 1000.00000  1000.00000  1000.00000    90.00000    90.00000    90.00000  Step:          33  Bead:       0 positions{angstrom}  cell{angstrom}
       O -3.15442e+00  1.06656e+00  3.46223e-01
       H -3.24078e+00  2.51600e-01  8.19376e-01
       H -2.49019e+00  1.50502e+00  8.46171e-01
       H -3.58362e+00  1.38401e+00 -4.75629e-01
4
# CELL(abcABC): 1000.00000  1000.00000  1000.00000    90.00000    90.00000    90.00000  Step:          34  Bead:       0 positions{angstrom}  cell{angstrom}
       O -3.15590e+00  1.06732e+00  3.46341e-01
       H -3.23535e+00  2.37383e-01  8.23841e-01
       H -2.47986e+00  1.50621e+00  8.32729e-01
       H -3.57599e+00  1.38493e+00 -4.68527e-01
4
# CELL(abcABC): 1000.00000  1000.00000  1000.00000    90.00000    90.00000    90.00000  Step:          35  Bead:       0 positions{angstrom}  cell{angstrom}
       O -3.15735e+00  1.06788e+00  3.46565e-01
       H -3.22919e+00  2.24375e-01  8.25941e-01
       H -2.47054e+00  1.50968e+00  8.20021e-01
       H -3.56847e+00  1.38557e+00 -4.61478e-01
4
# CELL(abcABC): 1000.00000  1000.00000  1000.00000    90.00000    90.00000    90.00000  Step:          36  Bead:       0 positions{angstrom}  cell{angstrom}
       O -3.15874e+00  1.06811e+00  3.46975e-01
       H -3.22361e+00  2.14030e-01  8.25188e-01
       H -2.46127e+00  1.51554e+00  8.06417e-01
       H -3.56113e+00  1.38632e+00 -4.53618e-01
4
# CELL(abcABC): 1000.00000  1000.00000  1000.00000    90.00000    90.00000    90.00000  Step:          37  Bead:       0 positions{angstrom}  cell{angstrom}
       O -3.16009e+00  1.06813e+00  3.47479e-01
       H -3.21813e+00  2.08050e-01  8.23480e-01
       H -2.45213e+00  1.52149e+00  7.92100e-01
       H -3.55439e+00  1.38605e+00 -4.45592e-01
4
# CELL(abcABC): 1000.00000  1000.00000  1000.00000    90.00000    90.00000    90.00000  Step:          38  Bead:       0 positions{angstrom}  cell{angstrom}
       O -3.16114e+00  1.06787e+00  3.48370e-01
       H -3.21432e+00  2.05822e-01  8.17779e-01
       H -2.44393e+00  1.52662e+00  7.77131e-01
       H -3.54977e+00  1.38726e+00 -4.39065e-01
4
# CELL(abcABC): 1000.00000  1000.00000  1000.00000    90.00000    90.00000    90.00000  Step:          39  Bead:       0 positions{angstrom}  cell{angstrom}
       O -3.16219e+00  1.06749e+00  3.49363e-01
       H -3.21041e+00  2.06865e-01  8.10019e-01
       H -2.43653e+00  1.53047e+00  7.62693e-01
       H -3.54436e+00  1.38838e+00 -4.32643e-01
4
# CELL(abcABC): 1000.00000  1000.00000  1000.00000    90.00000    90.00000    90.00000  Step:          40  Bead:       0 positions{angstrom}  cell{angstrom}
       O -3.16311e+00  1.06688e+00  3.50342e-01
       H -3.20709e+00  2.11384e-01  8.01110e-01
       H -2.43022e+00  1.53403e+00  7.49593e-01
       H -3.53936e+00  1.39004e+00 -4.26172e-01
4
# CELL(abcABC): 1000.00000  1000.00000  1000.00000    90.00000    90.00000    90.00000  Step:          41  Bead:       0 positions{angstrom}  cell{angstrom}
       O -3.16384e+00  1.06613e+00  3.51385e-01
       H -3.20471e+00  2.19000e-01  7.90335e-01
       H -2.42482e+00  1.53726e+00  7.36615e-01
       H -3.53561e+00  1.39114e+00 -4.18975e-01
4
# CELL(abcABC): 1000.00000  1000.00000  1000.00000    90.00000    90.00000    90.00000  Step:          42  Bead:       0 positions{angstrom}  cell{angstrom}
       O -3.16447e+00  1.06551e+00  3.52530e-01
       H -3.20150e+00  2.25642e-01  7.78695e-01
       H -2.42077e+00  1.53957e+00  7.23945e-01
       H -3.53284e+00  1.39205e+00 -4.12839e-01
4
# CELL(abcABC): 1000.00000  1000.00000  1000.00000    90.00000    90.00000    90.00000  Step:          43  Bead:       0 positions{angstrom}  cell{angstrom}
       O -3.16488e+00  1.06494e+00  3.53671e-01
       H -3.19918e+00  2.32411e-01  7.67069e-01
       H -2.41820e+00  1.54212e+00  7.11643e-01
       H -3.53130e+00  1.39180e+00 -4.07018e-01
4
# CELL(abcABC): 1000.00000  1000.00000  1000.00000    90.00000    90.00000    90.00000  Step:          44  Bead:       0 positions{angstrom}  cell{angstrom}
       O -3.16505e+00  1.06463e+00  3.54723e-01
       H -3.19722e+00  2.36127e-01  7.56128e-01
       H -2.41704e+00  1.54309e+00  6.99225e-01
       H -3.53170e+00  1.39198e+00 -4.00357e-01
4
# CELL(abcABC): 1000.00000  1000.00000  1000.00000    90.00000    90.00000    90.00000  Step:          45  Bead:       0 positions{angstrom}  cell{angstrom}
       O -3.16493e+00  1.06466e+00  3.55685e-01
       H -3.19631e+00  2.36301e-01  7.46545e-01
       H -2.41635e+00  1.54235e+00  6.86646e-01
       H -3.53513e+00  1.39212e+00 -3.93465e-01
4
# CELL(abcABC): 1000.00000  1000.00000  1000.00000    90.00000    90.00000    90.00000  Step:          46  Bead:       0 positions{angstrom}  cell{angstrom}
       O -3.16471e+00  1.06504e+00  3.56486e-01
       H -3.19584e+00  2.32748e-01  7.38938e-01
       H -2.41639e+00  1.53987e+00  6.74566e-01
       H -3.53914e+00  1.39202e+00 -3.86493e-01
4
# CELL(abcABC): 1000.00000  1000.00000  1000.00000    90.00000    90.00000    90.00000  Step:          47  Bead:       0 positions{angstrom}  cell{angstrom}
       O -3.16436e+00  1.06562e+00  3.57195e-01
       H -3.19552e+00  2.24671e-01  7.34010e-01
       H -2.41620e+00  1.53707e+00  6.62944e-01
       H -3.54521e+00  1.39371e+00 -3.81197e-01
4
# CELL(abcABC): 1000.00000  1000.00000  1000.00000    90.00000    90.00000    90.00000  Step:          48  Bead:       0 positions{angstrom}  cell{angstrom}
       O -3.16395e+00  1.06650e+00  3.57678e-01
       H -3.19468e+00  2.12257e-01  7.31431e-01
       H -2.41516e+00  1.53470e+00  6.52226e-01
       H -3.55358e+00  1.39460e+00 -3.75569e-01
4
# CELL(abcABC): 1000.00000  1000.00000  1000.00000    90.00000    90.00000    90.00000  Step:          49  Bead:       0 positions{angstrom}  cell{angstrom}
       O -3.16359e+00  1.06745e+00  3.57856e-01
       H -3.19353e+00  1.97760e-01  7.30786e-01
       H -2.41145e+00  1.53220e+00  6.43513e-01
       H -3.56408e+00  1.39651e+00 -3.69039e-01
4
# CELL(abcABC): 1000.00000  1000.00000  1000.00000    90.00000    90.00000    90.00000  Step:          50  Bead:       0 positions{angstrom}  cell{angstrom}
       O -3.16311e+00  1.06840e+00  3.57985e-01
       H -3.19231e+00  1.83727e-01  7.30406e-01
       H -2.40772e+00  1.52924e+00  6.36836e-01
       H -3.57677e+00  1.39833e+00 -3.64020e-01
4
# CELL(abcABC): 1000.00000  1000.00000  1000.00000    90.00000    90.00000    90.00000  Step:          51  Bead:       0 positions{angstrom}  cell{angstrom}
       O -3.16268e+00  1.06916e+00  3.58016e-01
       H -3.19097e+00  1.71386e-01  7.29439e-01
       H -2.40238e+00  1.52698e+00  6.31994e-01
       H -3.59012e+00  1.40084e+00 -3.58701e-01
4
# CELL(abcABC): 1000.00000  1000.00000  1000.00000    90.00000    90.00000    90.00000  Step:          52  Bead:       0 positions{angstrom}  cell{angstrom}
       O -3.16230e+00  1.06975e+00  3.58082e-01
       H -3.18950e+00  1.62317e-01  7.27805e-01
       H -2.39556e+00  1.52447e+00  6.27891e-01
       H -3.60457e+00  1.40309e+00 -3.54023e-01
4
# CELL(abcABC): 1000.00000  1000.00000  1000.00000    90.00000    90.00000    90.00000  Step:          53  Bead:       0 positions{angstrom}  cell{angstrom}
       O -3.16196e+00  1.07000e+00  3.58067e-01
       H -3.18693e+00  1.58172e-01  7.24265e-01
       H -2.38764e+00  1.52354e+00  6.26130e-01
       H -3.62033e+00  1.40422e+00 -3.48472e-01
4
# CELL(abcABC): 1000.00000  1000.00000  1000.00000    90.00000    90.00000    90.00000  Step:          54  Bead:       0 positions{angstrom}  cell{angstrom}
       O -3.16161e+00  1.07003e+00  3.57749e-01
       H -3.18393e+00  1.57822e-01  7.20774e-01
       H -2.37942e+00  1.52316e+00  6.26606e-01
       H -3.63720e+00  1.40444e+00 -3.40422e-01
4
# CELL(abcABC): 1000.00000  1000.00000  1000.00000    90.00000    90.00000    90.00000  Step:          55  Bead:       0 positions{angstrom}  cell{angstrom}
       O -3.16125e+00  1.06982e+00  3.57363e-01
       H -3.18103e+00  1.62181e-01  7.17132e-01
       H -2.37119e+00  1.52230e+00  6.28923e-01
       H -3.65403e+00  1.40431e+00 -3.32961e-01
4
# CELL(abcABC): 1000.00000  1000.00000  1000.00000    90.00000    90.00000    90.00000  Step:          56  Bead:       0 positions{angstrom}  cell{angstrom}
       O -3.16087e+00  1.06938e+00  3.56938e-01
       H -3.17551e+00  1.70735e-01  7.13443e-01
       H -2.36408e+00  1.52018e+00  6.30986e-01
       H -3.67275e+00  1.40485e+00 -3.24595e-01
4
# CELL(abcABC): 1000.00000  1000.00000  1000.00000    90.00000    90.00000    90.00000  Step:          57  Bead:       0 positions{angstrom}  cell{angstrom}
       O -3.16035e+00  1.06880e+00  3.56417e-01
       H -3.16798e+00  1.82649e-01  7.10062e-01
       H -2.35963e+00  1.51633e+00  6.34596e-01
       H -3.69295e+00  1.40601e+00 -3.16549e-01
4
# CELL(abcABC): 1000.00000  1000.00000  1000.00000    90.00000    90.00000    90.00000  Step:          58  Bead:       0 positions{angstrom}  cell{angstrom}
       O -3.15977e+00  1.06827e+00  3.55829e-01
       H -3.15899e+00  1.94951e-01  7.06895e-01
       H -2.35666e+00  1.51111e+00  6.39214e-01
       H -3.71411e+00  1.40727e+00 -3.08666e-01
4
# CELL(abcABC): 1000.00000  1000.00000  1000.00000    90.00000    90.00000    90.00000  Step:          59  Bead:       0 positions{angstrom}  cell{angstrom}
       O -3.15911e+00  1.06783e+00  3.55031e-01
       H -3.14876e+00  2.06690e-01  7.04816e-01
       H -2.35531e+00  1.50513e+00  6.45668e-01
       H -3.73610e+00  1.40864e+00 -3.00382e-01
4
# CELL(abcABC): 1000.00000  1000.00000  1000.00000    90.00000    90.00000    90.00000  Step:          60  Bead:       0 positions{angstrom}  cell{angstrom}
       O -3.15838e+00  1.06766e+00  3.54163e-01
       H -3.13934e+00  2.15592e-01  7.04390e-01
       H -2.35500e+00  1.49744e+00  6.50670e-01
       H -3.75748e+00  1.41010e+00 -2.91182e-01
4
# CELL(abcABC): 1000.00000  1000.00000  1000.00000    90.00000    90.00000    90.00000  Step:          61  Bead:       0 positions{angstrom}  cell{angstrom}
       O -3.15765e+00  1.06783e+00  3.53191e-01
       H -3.12893e+00  2.20172e-01  7.05666e-01
       H -2.35492e+00  1.48876e+00  6.54424e-01
       H -3.77945e+00  1.41148e+00 -2.80779e-01
4
# CELL(abcABC): 1000.00000  1000.00000  1000.00000    90.00000    90.00000    90.00000  Step:          62  Bead:       0 positions{angstrom}  cell{angstrom}
       O -3.15680e+00  1.06840e+00  3.52222e-01
       H -3.11934e+00  2.19586e-01  7.08507e-01
       H -2.35712e+00  1.47922e+00  6.57643e-01
       H -3.80044e+00  1.41258e+00 -2.71448e-01
4
# CELL(abcABC): 1000.00000  1000.00000  1000.00000    90.00000    90.00000    90.00000  Step:          63  Bead:       0 positions{angstrom}  cell{angstrom}
       O -3.15587e+00  1.06911e+00  3.50987e-01
       H -3.10961e+00  2.16074e-01  7.13503e-01
       H -2.36004e+00  1.46912e+00  6.60721e-01
       H -3.82198e+00  1.41489e+00 -2.59917e-01
4
# CELL(abcABC): 1000.00000  1000.00000  1000.00000    90.00000    90.00000    90.00000  Step:          64  Bead:       0 positions{angstrom}  cell{angstrom}
       O -3.15500e+00  1.06996e+00  3.49629e-01
       H -3.09908e+00  2.10002e-01  7.20590e-01
       H -2.36224e+00  1.45962e+00  6.63976e-01
       H -3.84412e+00  1.41703e+00 -2.48706e-01
4
# CELL(abcABC): 1000.00000  1000.00000  1000.00000    90.00000    90.00000    90.00000  Step:          65  Bead:       0 positions{angstrom}  cell{angstrom}
       O -3.15420e+00  1.07074e+00  3.48255e-01
       H -3.09003e+00  2.03213e-01  7.26914e-01
       H -2.36264e+00  1.45285e+00  6.67315e-01
       H -3.86554e+00  1.41811e+00 -2.36563e-01
4
# CELL(abcABC): 1000.00000  1000.00000  1000.00000    90.00000    90.00000    90.00000  Step:          66  Bead:       0 positions{angstrom}  cell{angstrom}
       O -3.15348e+00  1.07131e+00  3.46799e-01
       H -3.08204e+00  1.99145e-01  7.33490e-01
       H -2.36137e+00  1.44651e+00  6.71204e-01
       H -3.88609e+00  1.41955e+00 -2.23924e-01
4
# CELL(abcABC): 1000.00000  1000.00000  1000.00000    90.00000    90.00000    90.00000  Step:          67  Bead:       0 positions{angstrom}  cell{angstrom}
       O -3.15278e+00  1.07174e+00  3.45395e-01
       H -3.07503e+00  1.95446e-01  7.38236e-01
       H -2.35792e+00  1.44249e+00  6.75743e-01
       H -3.90780e+00  1.42037e+00 -2.10922e-01
4
# CELL(abcABC): 1000.00000  1000.00000  1000.00000    90.00000    90.00000    90.00000  Step:          68  Bead:       0 positions{angstrom}  cell{angstrom}
       O -3.15214e+00  1.07187e+00  3.44243e-01
       H -3.06883e+00  1.93469e-01  7.41162e-01
       H -2.35271e+00  1.44084e+00  6.78560e-01
       H -3.92929e+00  1.42190e+00 -1.98374e-01
4
# CELL(abcABC): 1000.00000  1000.00000  1000.00000    90.00000    90.00000    90.00000  Step:          69  Bead:       0 positions{angstrom}  cell{angstrom}
       O -3.15145e+00  1.07185e+00  3.43062e-01
       H -3.06455e+00  1.92285e-01  7.43873e-01
       H -2.34729e+00  1.44149e+00  6.81793e-01
       H -3.95002e+00  1.42283e+00 -1.85573e-01
4
# CELL(abcABC): 1000.00000  1000.00000  1000.00000    90.00000    90.00000    90.00000  Step:          70  Bead:       0 positions{angstrom}  cell{angstrom}
       O -3.15087e+00  1.07142e+00  3.42079e-01
       H -3.06149e+00  1.94167e-01  7.43576e-01
       H -2.34141e+00  1.44489e+00  6.83863e-01
       H -3.96808e+00  1.42438e+00 -1.71741e-01
4
# CELL(abcABC): 1000.00000  1000.00000  1000.00000    90.00000    90.00000    90.00000  Step:          71  Bead:       0 positions{angstrom}  cell{angstrom}
       O -3.15017e+00  1.07083e+00  3.41386e-01
       H -3.06070e+00  1.97084e-01  7.39822e-01
       H -2.33650e+00  1.44944e+00  6.84196e-01
       H -3.98487e+00  1.42618e+00 -1.57321e-01
4
# CELL(abcABC): 1000.00000  1000.00000  1000.00000    90.00000    90.00000    90.00000  Step:          72  Bead:       0 positions{angstrom}  cell{angstrom}
       O -3.14942e+00  1.06998e+00  3.40873e-01
       H -3.06100e+00  2.01771e-01  7.34485e-01
       H -2.33255e+00  1.45547e+00  6.83691e-01
       H -4.00053e+00  1.42905e+00 -1.43336e-01
4
# CELL(abcABC): 1000.00000  1000.00000  1000.00000    90.00000    90.00000    90.00000  Step:          73  Bead:       0 positions{angstrom}  cell{angstrom}
       O -3.14851e+00  1.06907e+00  3.40651e-01
       H -3.06267e+00  2.06868e-01  7.27522e-01
       H -2.33034e+00  1.46281e+00  6.81414e-01
       H -4.01549e+00  1.43110e+00 -1.30564e-01
4
# CELL(abcABC): 1000.00000  1000.00000  1000.00000    90.00000    90.00000    90.00000  Step:          74  Bead:       0 positions{angstrom}  cell{angstrom}
       O -3.14752e+00  1.06810e+00  3.40784e-01
       H -3.06500e+00  2.11505e-01  7.18290e-01
       H -2.33027e+00  1.47074e+00  6.76075e-01
       H -4.02891e+00  1.43386e+00 -1.18116e-01
4
# CELL(abcABC): 1000.00000  1000.00000  1000.00000    90.00000    90.00000    90.00000  Step:          75  Bead:       0 positions{angstrom}  cell{angstrom}
       O -3.14628e+00  1.06728e+00  3.41078e-01
       H -3.06846e+00  2.13390e-01  7.08140e-01
       H -2.33303e+00  1.47834e+00  6.69654e-01
       H -4.04230e+00  1.43747e+00 -1.06199e-01
4
# CELL(abcABC): 1000.00000  1000.00000  1000.00000    90.00000    90.00000    90.00000  Step:          76  Bead:       0 positions{angstrom}  cell{angstrom}
       O -3.14508e+00  1.06650e+00  3.41359e-01
       H -3.07139e+00  2.12810e-01  6.99225e-01
       H -2.33795e+00  1.48607e+00  6.61702e-01
       H -4.05356e+00  1.44258e+00 -9.37980e-02
4
# CELL(abcABC): 1000.00000  1000.00000  1000.00000    90.00000    90.00000    90.00000  Step:          77  Bead:       0 positions{angstrom}  cell{angstrom}
       O -3.14380e+00  1.06592e+00  3.41671e-01
       H -3.07437e+00  2.09902e-01  6.90827e-01
       H -2.34491e+00  1.49408e+00  6.53052e-01
       H -4.06400e+00  1.44674e+00 -8.17084e-02
4
# CELL(abcABC): 1000.00000  1000.00000  1000.00000    90.00000    90.00000    90.00000  Step:          78  Bead:       0 positions{angstrom}  cell{angstrom}
       O -3.14253e+00  1.06558e+00  3.42178e-01
       H -3.07821e+00  2.02974e-01  6.82184e-01
       H -2.35188e+00  1.50271e+00  6.43231e-01
       H -4.07334e+00  1.45048e+00 -7.12910e-02
4
# CELL(abcABC): 1000.00000  1000.00000  1000.00000    90.00000    90.00000    90.00000  Step:          79  Bead:       0 positions{angstrom}  cell{angstrom}
       O -3.14146e+00  1.06554e+00  3.42661e-01
       H -3.08212e+00  1.93732e-01  6.75456e-01
       H -2.35755e+00  1.51048e+00  6.32695e-01
       H -4.08066e+00  1.45257e+00 -6.16857e-02
4
# CELL(abcABC): 1000.00000  1000.00000  1000.00000    90.00000    90.00000    90.00000  Step:          80  Bead:       0 positions{angstrom}  cell{angstrom}
       O -3.14070e+00  1.06566e+00  3.43033e-01
       H -3.08484e+00  1.82945e-01  6.69173e-01
       H -2.36199e+00  1.51799e+00  6.23069e-01
       H -4.08556e+00  1.45384e+00 -5.16819e-02
4
# CELL(abcABC): 1000.00000  1000.00000  1000.00000    90.00000    90.00000    90.00000  Step:          81  Bead:       0 positions{angstrom}  cell{angstrom}
       O -3.14027e+00  1.06572e+00  3.43465e-01
       H -3.08448e+00  1.72471e-01  6.62399e-01
       H -2.36555e+00  1.52738e+00  6.13785e-01
       H -4.08919e+00  1.45396e+00 -4.24811e-02
4
# CELL(abcABC): 1000.00000  1000.00000  1000.00000    90.00000    90.00000    90.00000  Step:          82  Bead:       0 positions{angstrom}  cell{angstrom}
       O -3.14013e+00  1.06593e+00  3.43803e-01
       H -3.08227e+00  1.62029e-01  6.56254e-01
       H -2.36702e+00  1.53549e+00  6.04767e-01
       H -4.09212e+00  1.45311e+00 -3.26911e-02
4
# CELL(abcABC): 1000.00000  1000.00000  1000.00000    90.00000    90.00000    90.00000  Step:          83  Bead:       0 positions{angstrom}  cell{angstrom}
       O -3.14033e+00  1.06600e+00  3.44156e-01
       H -3.07875e+00  1.53778e-01  6.50130e-01
       H -2.36670e+00  1.54380e+00  5.96155e-01
       H -4.09279e+00  1.45189e+00 -2.35575e-02
4
# CELL(abcABC): 1000.00000  1000.00000  1000.00000    90.00000    90.00000    90.00000  Step:          84  Bead:       0 positions{angstrom}  cell{angstrom}
       O -3.14080e+00  1.06597e+00  3.44568e-01
       H -3.07283e+00  1.47387e-01  6.42400e-01
       H -2.36584e+00  1.55182e+00  5.87777e-01
       H -4.09217e+00  1.45065e+00 -1.39918e-02
4
# CELL(abcABC): 1000.00000  1000.00000  1000.00000    90.00000    90.00000    90.00000  Step:          85  Bead:       0 positions{angstrom}  cell{angstrom}