6
# CELL(abcABC): 1000.00000  1000.00000  1000.00000    90.00000    90.00000    90.00000  Step:         506  Bead:       0 positions{angstrom}  cell{angstrom}
       C -6.56122e-01  3.08003e+00 -5.64418e-01
       H -1.09988e+00  3.67657e+00 -1.34186e+00
       H  2.04459e-01  3.58761e+00 -1.71241e-01
       H -3.75147e-01  2.10666e+00 -9.74879e-01
       O -1.58421e+00  2.91072e+00  4.86021e-01
       H -2.27455e+00  2.56524e+00  1.18511e+00
