4
# CELL(abcABC): 1000.00000  1000.00000  1000.00000    90.00000    90.00000    90.00000  Step:         400  Bead:       0 positions{angstrom}  cell{angstrom}
       O -3.15373e+00  1.07067e+00  3.50350e-01
       H -2.86575e+00  2.56366e-01  7.46569e-01
       H -2.86340e+00  1.68195e+00  1.00081e+00
       H -3.59638e+00  1.13699e+00 -6.22970e-01
