4
# CELL(abcABC): 1000.00000  1000.00000  1000.00000    90.00000    90.00000    90.00000  Step:           0  Bead:       0 positions{angstrom}  cell{angstrom}
       O -3.14712e+00  1.07627e+00  3.54122e-01
       H -2.59771e+00  9.18917e-01 -4.51791e-01
       H -2.54350e+00  1.18618e+00  1.05803e+00
       H -4.28921e+00  8.81455e-01  4.58310e-01
4
# CELL(abcABC): 1000.00000  1000.00000  1000.00000    90.00000    90.00000    90.00000  Step:           1  Bead:       0 positions{angstrom}  cell{angstrom}
       O -3.14554e+00  1.07646e+00  3.53419e-01
       H -2.60822e+00  9.12345e-01 -4.46477e-01
       H -2.54171e+00  1.18607e+00  1.06062e+00
       H -4.30562e+00  8.85077e-01  4.61568e-01
4
# CELL(abcABC): 1000.00000  1000.00000  1000.00000    90.00000    90.00000    90.00000  Step:           2  Bead:       0 positions{angstrom}  cell{angstrom}
       O -3.14429e+00  1.07646e+00  3.52479e-01
       H -2.61975e+00  9.07063e-01 -4.39431e-01
       H -2.53527e+00  1.18701e+00  1.06570e+00
       H -4.32033e+00  8.89454e-01  4.64353e-01
4
# CELL(abcABC): 1000.00000  1000.00000  1000.00000    90.00000    90.00000    90.00000  Step:           3  Bead:       0 positions{angstrom}  cell{angstrom}
       O -3.14327e+00  1.07635e+00  3.51385e-01
       H -2.63067e+00  9.01406e-01 -4.30608e-01
       H -2.52682e+00  1.19004e+00  1.07294e+00
       H -4.33400e+00  8.93891e-01  4.65665e-01
4
# CELL(abcABC): 1000.00000  1000.00000  1000.00000    90.00000    90.00000    90.00000  Step:           4  Bead:       0 positions{angstrom}  cell{angstrom}
       O -3.14256e+00  1.07618e+00  3.50477e-01
       H -2.64066e+00  8.94956e-01 -4.24351e-01
       H -2.51653e+00  1.19459e+00  1.07998e+00
       H -4.34566e+00  8.98451e-01  4.66769e-01
4
# CELL(abcABC): 1000.00000  1000.00000  1000.00000    90.00000    90.00000    90.00000  Step:           5  Bead:       0 positions{angstrom}  cell{angstrom}
       O -3.14201e+00  1.07584e+00  3.49885e-01
       H -2.64940e+00  8.88538e-01 -4.21079e-01
       H -2.50677e+00  1.20103e+00  1.08703e+00
       H -4.35529e+00  9.03877e-01  4.65855e-01
4
# CELL(abcABC): 1000.00000  1000.00000  1000.00000    90.00000    90.00000    90.00000  Step:           6  Bead:       0 positions{angstrom}  cell{angstrom}
       O -3.14161e+00  1.07554e+00  3.49736e-01
       H -2.65542e+00  8.82090e-01 -4.22320e-01
       H -2.49849e+00  1.20644e+00  1.09092e+00
       H -4.36390e+00  9.09610e-01  4.65566e-01
4
# CELL(abcABC): 1000.00000  1000.00000  1000.00000    90.00000    90.00000    90.00000  Step:           7  Bead:       0 positions{angstrom}  cell{angstrom}
       O -3.14149e+00  1.07514e+00  3.49856e-01
       H -2.65717e+00  8.75244e-01 -4.25960e-01
       H -2.49190e+00  1.21182e+00  1.09272e+00
       H -4.37078e+00  9.17478e-01  4.65506e-01
4
# CELL(abcABC): 1000.00000  1000.00000  1000.00000    90.00000    90.00000    90.00000  Step:           8  Bead:       0 positions{angstrom}  cell{angstrom}
       O -3.14163e+00  1.07474e+00  3.50480e-01
       H -2.65534e+00  8.68060e-01 -4.33436e-01
       H -2.48622e+00  1.21639e+00  1.09057e+00
       H -4.37604e+00  9.26386e-01  4.65229e-01
4
# CELL(abcABC): 1000.00000  1000.00000  1000.00000    90.00000    90.00000    90.00000  Step:           9  Bead:       0 positions{angstrom}  cell{angstrom}
       O -3.14194e+00  1.07442e+00  3.51347e-01
       H -2.65150e+00  8.59930e-01 -4.41778e-01
       H -2.48158e+00  1.22103e+00  1.08563e+00
       H -4.37950e+00  9.35031e-01  4.64741e-01
4
# CELL(abcABC): 1000.00000  1000.00000  1000.00000    90.00000    90.00000    90.00000  Step:          10  Bead:       0 positions{angstrom}  cell{angstrom}
       O -3.14234e+00  1.07399e+00  3.52603e-01
       H -2.64631e+00  8.51982e-01 -4.51512e-01
       H -2.47883e+00  1.22613e+00  1.07675e+00
       H -4.38114e+00  9.44597e-01  4.63423e-01
4
# CELL(abcABC): 1000.00000  1000.00000  1000.00000    90.00000    90.00000    90.00000  Step:          11  Bead:       0 positions{angstrom}  cell{angstrom}
       O -3.14277e+00  1.07352e+00  3.54137e-01
       H -2.64050e+00  8.45355e-01 -4.61721e-01
       H -2.47913e+00  1.23071e+00  1.06475e+00
       H -4.37984e+00  9.54071e-01  4.61289e-01
4
# CELL(abcABC): 1000.00000  1000.00000  1000.00000    90.00000    90.00000    90.00000  Step:          12  Bead:       0 positions{angstrom}  cell{angstrom}
       O -3.14335e+00  1.07303e+00  3.55736e-01
       H -2.63383e+00  8.39582e-01 -4.70032e-01
       H -2.48075e+00  1.23389e+00  1.04988e+00
       H -4.37563e+00  9.64431e-01  4.59083e-01
4
# CELL(abcABC): 1000.00000  1000.00000  1000.00000    90.00000    90.00000    90.00000  Step:          13  Bead:       0 positions{angstrom}  cell{angstrom}
       O -3.14403e+00  1.07245e+00  3.57155e-01
       H -2.62829e+00  8.35794e-01 -4.74715e-01
       H -2.48148e+00  1.23693e+00  1.03435e+00
       H -4.36964e+00  9.74406e-01  4.56781e-01
4
# CELL(abcABC): 1000.00000  1000.00000  1000.00000    90.00000    90.00000    90.00000  Step:          14  Bead:       0 positions{angstrom}  cell{angstrom}
       O -3.14483e+00  1.07172e+00  3.58245e-01
       H -2.62314e+00  8.33360e-01 -4.74851e-01
       H -2.48125e+00  1.24080e+00  1.01933e+00
       H -4.36241e+00  9.84593e-01  4.54621e-01
4
# CELL(abcABC): 1000.00000  1000.00000  1000.00000    90.00000    90.00000    90.00000  Step:          15  Bead:       0 positions{angstrom}  cell{angstrom}
       O -3.14562e+00  1.07073e+00  3.58731e-01
       H -2.62215e+00  8.32153e-01 -4.68382e-01
       H -2.48043e+00  1.24570e+00  1.00617e+00
       H -4.35162e+00  9.96705e-01  4.53602e-01
4
# CELL(abcABC): 1000.00000  1000.00000  1000.00000    90.00000    90.00000    90.00000  Step:          16  Bead:       0 positions{angstrom}  cell{angstrom}
       O -3.14654e+00  1.06949e+00  3.58786e-01
       H -2.62237e+00  8.32195e-01 -4.58175e-01
       H -2.47808e+00  1.25246e+00  9.95647e-01
       H -4.33913e+00  1.00945e+00  4.53051e-01
4
# CELL(abcABC): 1000.00000  1000.00000  1000.00000    90.00000    90.00000    90.00000  Step:          17  Bead:       0 positions{angstrom}  cell{angstrom}
       O -3.14746e+00  1.06810e+00  3.58420e-01
       H -2.62399e+00  8.34061e-01 -4.44469e-01
       H -2.47494e+00  1.26087e+00  9.87209e-01
       H -4.32616e+00  1.02131e+00  4.53585e-01
4
# CELL(abcABC): 1000.00000  1000.00000  1000.00000    90.00000    90.00000    90.00000  Step:          18  Bead:       0 positions{angstrom}  cell{angstrom}
       O -3.14841e+00  1.06648e+00  3.57705e-01
       H -2.62830e+00  8.37709e-01 -4.28576e-01
       H -2.46905e+00  1.27035e+00  9.81899e-01
       H -4.31259e+00  1.03388e+00  4.54356e-01
4
# CELL(abcABC): 1000.00000  1000.00000  1000.00000    90.00000    90.00000    90.00000  Step:          19  Bead:       0 positions{angstrom}  cell{angstrom}
       O -3.14952e+00  1.06482e+00  3.56760e-01
       H -2.63308e+00  8.41621e-01 -4.11992e-01
       H -2.46292e+00  1.28022e+00  9.78784e-01
       H -4.29631e+00  1.04644e+00  4.55883e-01
4
# CELL(abcABC): 1000.00000  1000.00000  1000.00000    90.00000    90.00000    90.00000  Step:          20  Bead:       0 positions{angstrom}  cell{angstrom}
       O -3.15068e+00  1.06318e+00  3.55831e-01
       H -2.63762e+00  8.45711e-01 -3.98658e-01
       H -2.45756e+00  1.29094e+00  9.78230e-01
       H -4.27866e+00  1.05762e+00  4.57842e-01
4
# CELL(abcABC): 1000.00000  1000.00000  1000.00000    90.00000    90.00000    90.00000  Step:          21  Bead:       0 positions{angstrom}  cell{angstrom}
       O -3.15197e+00  1.06159e+00  3.55107e-01
       H -2.64144e+00  8.48412e-01 -3.90291e-01
       H -2.45128e+00  1.30267e+00  9.80270e-01
       H -4.26072e+00  1.06849e+00  4.58940e-01
4
# CELL(abcABC): 1000.00000  1000.00000  1000.00000    90.00000    90.00000    90.00000  Step:          22  Bead:       0 positions{angstrom}  cell{angstrom}
       O -3.15333e+00  1.06002e+00  3.54762e-01
       H -2.64454e+00  8.48911e-01 -3.86135e-01
       H -2.44450e+00  1.31474e+00  9.81448e-01
       H -4.24279e+00  1.08082e+00  4.59084e-01
4
# CELL(abcABC): 1000.00000  1000.00000  1000.00000    90.00000    90.00000    90.00000  Step:          23  Bead:       0 positions{angstrom}  cell{angstrom}
       O -3.15468e+00  1.05859e+00  3.54992e-01
       H -2.64531e+00  8.48363e-01 -3.88421e-01
       H -2.43925e+00  1.32700e+00  9.82926e-01
       H -4.22583e+00  1.09187e+00  4.56228e-01
4
# CELL(abcABC): 1000.00000  1000.00000  1000.00000    90.00000    90.00000    90.00000  Step:          24  Bead:       0 positions{angstrom}  cell{angstrom}
       O -3.15592e+00  1.05722e+00  3.55644e-01
       H -2.64359e+00  8.45317e-01 -3.96360e-01
       H -2.43671e+00  1.33967e+00  9.83866e-01
       H -4.21038e+00  1.10397e+00  4.52881e-01
4
# CELL(abcABC): 1000.00000  1000.00000  1000.00000    90.00000    90.00000    90.00000  Step:          25  Bead:       0 positions{angstrom}  cell{angstrom}
       O -3.15687e+00  1.05610e+00  3.56565e-01
       H -2.64085e+00  8.40109e-01 -4.07809e-01
       H -2.43805e+00  1.35071e+00  9.83707e-01
       H -4.19669e+00  1.11595e+00  4.49874e-01
4
# CELL(abcABC): 1000.00000  1000.00000  1000.00000    90.00000    90.00000    90.00000  Step:          26  Bead:       0 positions{angstrom}  cell{angstrom}
       O -3.15746e+00  1.05520e+00  3.57717e-01
       H -2.63806e+00  8.33528e-01 -4.22560e-01
       H -2.44275e+00  1.36026e+00  9.81847e-01
       H -4.18555e+00  1.12716e+00  4.48197e-01
4
# CELL(abcABC): 1000.00000  1000.00000  1000.00000    90.00000    90.00000    90.00000  Step:          27  Bead:       0 positions{angstrom}  cell{angstrom}
       O -3.15770e+00  1.05441e+00  3.59020e-01
       H -2.63652e+00  8.27710e-01 -4.38641e-01
       H -2.45085e+00  1.36770e+00  9.78187e-01
       H -4.17511e+00  1.13813e+00  4.47263e-01
4
# CELL(abcABC): 1000.00000  1000.00000  1000.00000    90.00000    90.00000    90.00000  Step:          28  Bead:       0 positions{angstrom}  cell{angstrom}
       O -3.15741e+00  1.05370e+00  3.60245e-01
       H -2.63805e+00  8.20672e-01 -4.53753e-01
       H -2.46122e+00  1.37406e+00  9.73636e-01
       H -4.16780e+00  1.15012e+00  4.47476e-01
4
# CELL(abcABC): 1000.00000  1000.00000  1000.00000    90.00000    90.00000    90.00000  Step:          29  Bead:       0 positions{angstrom}  cell{angstrom}
       O -3.15668e+00  1.05297e+00  3.61343e-01
       H -2.64151e+00  8.14656e-01 -4.67738e-01
       H -2.47457e+00  1.37941e+00  9.68438e-01
       H -4.16264e+00  1.16227e+00  4.49223e-01
4
# CELL(abcABC): 1000.00000  1000.00000  1000.00000    90.00000    90.00000    90.00000  Step:          30  Bead:       0 positions{angstrom}  cell{angstrom}
       O -3.15553e+00  1.05212e+00  3.62142e-01
       H -2.64759e+00  8.10671e-01 -4.77285e-01
       H -2.48907e+00  1.38414e+00  9.63748e-01
       H -4.16034e+00  1.17511e+00  4.50781e-01
4
# CELL(abcABC): 1000.00000  1000.00000  1000.00000    90.00000    90.00000    90.00000  Step:          31  Bead:       0 positions{angstrom}  cell{angstrom}
       O -3.15418e+00  1.05107e+00  3.62642e-01
       H -2.65512e+00  8.08044e-01 -4.82338e-01
       H -2.50260e+00  1.38994e+00  9.59368e-01
       H -4.16065e+00  1.18856e+00  4.52271e-01
4
# CELL(abcABC): 1000.00000  1000.00000  1000.00000    90.00000    90.00000    90.00000  Step:          32  Bead:       0 positions{angstrom}  cell{angstrom}
       O -3.15259e+00  1.05001e+00  3.62546e-01
       H -2.66638e+00  8.04753e-01 -4.82277e-01
       H -2.51405e+00  1.39746e+00  9.57941e-01
       H -4.16322e+00  1.20122e+00  4.55171e-01
4
# CELL(abcABC): 1000.00000  1000.00000  1000.00000    90.00000    90.00000    90.00000  Step:          33  Bead:       0 positions{angstrom}  cell{angstrom}
       O -3.15087e+00  1.04896e+00  3.61921e-01
       H -2.68048e+00  8.01805e-01 -4.76825e-01
       H -2.52276e+00  1.40476e+00  9.59184e-01
       H -4.16772e+00  1.21344e+00  4.58392e-01
4
# CELL(abcABC): 1000.00000  1000.00000  1000.00000    90.00000    90.00000    90.00000  Step:          34  Bead:       0 positions{angstrom}  cell{angstrom}
       O -3.14900e+00  1.04788e+00  3.61040e-01
       H -2.69562e+00  7.99351e-01 -4.68347e-01
       H -2.53051e+00  1.41242e+00  9.63001e-01
       H -4.17441e+00  1.22548e+00  4.60088e-01
4
# CELL(abcABC): 1000.00000  1000.00000  1000.00000    90.00000    90.00000    90.00000  Step:          35  Bead:       0 positions{angstrom}  cell{angstrom}
       O -3.14727e+00  1.04673e+00  3.59923e-01
       H -2.70944e+00  7.97022e-01 -4.58869e-01
       H -2.53657e+00  1.42179e+00  9.69504e-01
       H -4.18204e+00  1.23672e+00  4.61839e-01
4
# CELL(abcABC): 1000.00000  1000.00000  1000.00000    90.00000    90.00000    90.00000  Step:          36  Bead:       0 positions{angstrom}  cell{angstrom}
       O -3.14575e+00  1.04552e+00  3.58743e-01
       H -2.72224e+00  7.94391e-01 -4.49845e-01
       H -2.53984e+00  1.43290e+00  9.76548e-01
       H -4.19004e+00  1.24734e+00  4.64502e-01
4
# CELL(abcABC): 1000.00000  1000.00000  1000.00000    90.00000    90.00000    90.00000  Step:          37  Bead:       0 positions{angstrom}  cell{angstrom}
       O -3.14455e+00  1.04448e+00  3.57545e-01
       H -2.73248e+00  7.91721e-01 -4.40743e-01
       H -2.54047e+00  1.44336e+00  9.83537e-01
       H -4.19828e+00  1.25605e+00  4.67426e-01
4
# CELL(abcABC): 1000.00000  1000.00000  1000.00000    90.00000    90.00000    90.00000  Step:          38  Bead:       0 positions{angstrom}  cell{angstrom}
       O -3.14350e+00  1.04363e+00  3.56781e-01
       H -2.74070e+00  7.87424e-01 -4.36252e-01
       H -2.53945e+00  1.45203e+00  9.89659e-01
       H -4.20774e+00  1.26518e+00  4.68942e-01
4
# CELL(abcABC): 1000.00000  1000.00000  1000.00000    90.00000    90.00000    90.00000  Step:          39  Bead:       0 positions{angstrom}  cell{angstrom}
       O -3.14296e+00  1.04316e+00  3.56304e-01
       H -2.74447e+00  7.80775e-01 -4.35712e-01
       H -2.53691e+00  1.45826e+00  9.95213e-01
       H -4.21505e+00  1.27306e+00  4.70409e-01
4
# CELL(abcABC): 1000.00000  1000.00000  1000.00000    90.00000    90.00000    90.00000  Step:          40  Bead:       0 positions{angstrom}  cell{angstrom}
       O -3.14281e+00  1.04295e+00  3.56084e-01
       H -2.74430e+00  7.72447e-01 -4.38771e-01
       H -2.53343e+00  1.46283e+00  1.00022e+00
       H -4.22104e+00  1.28023e+00  4.71962e-01
4
# CELL(abcABC): 1000.00000  1000.00000  1000.00000    90.00000    90.00000    90.00000  Step:          41  Bead:       0 positions{angstrom}  cell{angstrom}
       O -3.14298e+00  1.04302e+00  3.56237e-01
       H -2.74080e+00  7.63246e-01 -4.46083e-01
       H -2.52906e+00  1.46556e+00  1.00279e+00
       H -4.22629e+00  1.28558e+00  4.74273e-01
4
# CELL(abcABC): 1000.00000  1000.00000  1000.00000    90.00000    90.00000    90.00000  Step:          42  Bead:       0 positions{angstrom}  cell{angstrom}
       O -3.14351e+00  1.04352e+00  3.56794e-01
       H -2.73291e+00  7.51069e-01 -4.56081e-01
       H -2.52445e+00  1.46582e+00  1.00265e+00
       H -4.23030e+00  1.28947e+00  4.75567e-01
4
# CELL(abcABC): 1000.00000  1000.00000  1000.00000    90.00000    90.00000    90.00000  Step:          43  Bead:       0 positions{angstrom}  cell{angstrom}
       O -3.14422e+00  1.04423e+00  3.57594e-01
       H -2.72336e+00  7.39274e-01 -4.66765e-01
       H -2.51987e+00  1.46482e+00  9.99591e-01
       H -4.23322e+00  1.29096e+00  4.76606e-01
4
# CELL(abcABC): 1000.00000  1000.00000  1000.00000    90.00000    90.00000    90.00000  Step:          44  Bead:       0 positions{angstrom}  cell{angstrom}
       O -3.14501e+00  1.04520e+00  3.58493e-01
       H -2.71272e+00  7.27079e-01 -4.76458e-01
       H -2.51543e+00  1.46087e+00  9.93048e-01
       H -4.23571e+00  1.29171e+00  4.78572e-01
4
# CELL(abcABC): 1000.00000  1000.00000  1000.00000    90.00000    90.00000    90.00000  Step:          45  Bead:       0 positions{angstrom}  cell{angstrom}
       O -3.14577e+00  1.04637e+00  3.59419e-01
       H -2.70274e+00  7.15941e-01 -4.83518e-01
       H -2.51033e+00  1.45400e+00  9.83098e-01
       H -4.23882e+00  1.29129e+00  4.80892e-01
4
# CELL(abcABC): 1000.00000  1000.00000  1000.00000    90.00000    90.00000    90.00000  Step:          46  Bead:       0 positions{angstrom}  cell{angstrom}
       O -3.14659e+00  1.04765e+00  3.60225e-01
       H -2.69375e+00  7.06866e-01 -4.86484e-01
       H -2.50502e+00  1.44438e+00  9.70714e-01
       H -4.24011e+00  1.28953e+00  4.83452e-01
4
# CELL(abcABC): 1000.00000  1000.00000  1000.00000    90.00000    90.00000    90.00000  Step:          47  Bead:       0 positions{angstrom}  cell{angstrom}
       O -3.14739e+00  1.04887e+00  3.60901e-01
       H -2.68623e+00  6.99315e-01 -4.83941e-01
       H -2.49873e+00  1.43361e+00  9.56332e-01
       H -4.24112e+00  1.28851e+00  4.84545e-01
4
# CELL(abcABC): 1000.00000  1000.00000  1000.00000    90.00000    90.00000    90.00000  Step:          48  Bead:       0 positions{angstrom}  cell{angstrom}
       O -3.14820e+00  1.05016e+00  3.61239e-01
       H -2.68011e+00  6.92656e-01 -4.75612e-01
       H -2.49102e+00  1.42266e+00  9.41005e-01
       H -4.24217e+00  1.28566e+00  4.86188e-01
4
# CELL(abcABC): 1000.00000  1000.00000  1000.00000    90.00000    90.00000    90.00000  Step:          49  Bead:       0 positions{angstrom}  cell{angstrom}
       O -3.14908e+00  1.05139e+00  3.61087e-01
       H -2.67605e+00  6.87385e-01 -4.61459e-01
       H -2.48015e+00  1.41125e+00  9.26492e-01
       H -4.24318e+00  1.28283e+00  4.88961e-01
4
# CELL(abcABC): 1000.00000  1000.00000  1000.00000    90.00000    90.00000    90.00000  Step:          50  Bead:       0 positions{angstrom}  cell{angstrom}
       O -3.14982e+00  1.05261e+00  3.60660e-01
       H -2.67448e+00  6.83810e-01 -4.43101e-01
       H -2.46879e+00  1.39934e+00  9.13417e-01
       H -4.24433e+00  1.27892e+00  4.90450e-01
4
# CELL(abcABC): 1000.00000  1000.00000  1000.00000    90.00000    90.00000    90.00000  Step:          51  Bead:       0 positions{angstrom}  cell{angstrom}
       O -3.15061e+00  1.05375e+00  3.59915e-01
       H -2.67529e+00  6.80917e-01 -4.21898e-01
       H -2.45549e+00  1.38834e+00  9.02076e-01
       H -4.24422e+00  1.27475e+00  4.92423e-01
4
# CELL(abcABC): 1000.00000  1000.00000  1000.00000    90.00000    90.00000    90.00000  Step:          52  Bead:       0 positions{angstrom}  cell{angstrom}
       O -3.15143e+00  1.05494e+00  3.59034e-01
       H -2.67811e+00  6.78211e-01 -3.99013e-01
       H -2.44048e+00  1.37756e+00  8.91704e-01
       H -4.24344e+00  1.26939e+00  4.93886e-01
4
# CELL(abcABC): 1000.00000  1000.00000  1000.00000    90.00000    90.00000    90.00000  Step:          53  Bead:       0 positions{angstrom}  cell{angstrom}
       O -3.15231e+00  1.05610e+00  3.57995e-01
       H -2.68133e+00  6.75539e-01 -3.77323e-01
       H -2.42435e+00  1.36909e+00  8.84121e-01
       H -4.24240e+00  1.26209e+00  4.96281e-01
4
# CELL(abcABC): 1000.00000  1000.00000  1000.00000    90.00000    90.00000    90.00000  Step:          54  Bead:       0 positions{angstrom}  cell{angstrom}
       O -3.15319e+00  1.05742e+00  3.56703e-01
       H -2.68483e+00  6.70510e-01 -3.56827e-01
       H -2.40813e+00  1.36217e+00  8.79249e-01
       H -4.24109e+00  1.25312e+00  5.01166e-01
4
# CELL(abcABC): 1000.00000  1000.00000  1000.00000    90.00000    90.00000    90.00000  Step:          55  Bead:       0 positions{angstrom}  cell{angstrom}
       O -3.15413e+00  1.05890e+00  3.55525e-01
       H -2.68829e+00  6.63146e-01 -3.39725e-01
       H -2.39236e+00  1.35606e+00  8.76584e-01
       H -4.23854e+00  1.24313e+00  5.05414e-01
4
# CELL(abcABC): 1000.00000  1000.00000  1000.00000    90.00000    90.00000    90.00000  Step:          56  Bead:       0 positions{angstrom}  cell{angstrom}
       O -3.15511e+00  1.06054e+00  3.54616e-01
       H -2.68822e+00  6.52721e-01 -3.27649e-01
       H -2.37847e+00  1.35018e+00  8.73865e-01
       H -4.23692e+00  1.23327e+00  5.10491e-01
4
# CELL(abcABC): 1000.00000  1000.00000  1000.00000    90.00000    90.00000    90.00000  Step:          57  Bead:       0 positions{angstrom}  cell{angstrom}
       O -3.15601e+00  1.06238e+00  3.53984e-01
       H -2.68499e+00  6.39188e-01 -3.21199e-01
       H -2.36826e+00  1.34424e+00  8.72806e-01
       H -4.23605e+00  1.22362e+00  5.15134e-01
4
# CELL(abcABC): 1000.00000  1000.00000  1000.00000    90.00000    90.00000    90.00000  Step:          58  Bead:       0 positions{angstrom}  cell{angstrom}
       O -3.15685e+00  1.06447e+00  3.53670e-01
       H -2.67943e+00  6.21470e-01 -3.20554e-01
       H -2.36087e+00  1.33862e+00  8.72823e-01
       H -4.23563e+00  1.21383e+00  5.19461e-01
4
# CELL(abcABC): 1000.00000  1000.00000  1000.00000    90.00000    90.00000    90.00000  Step:          59  Bead:       0 positions{angstrom}  cell{angstrom}
       O -3.15753e+00  1.06665e+00  3.53482e-01
       H -2.67263e+00  6.01316e-01 -3.24017e-01
       H -2.35672e+00  1.33381e+00  8.74728e-01
       H -4.23576e+00  1.20405e+00  5.24000e-01
4
# CELL(abcABC): 1000.00000  1000.00000  1000.00000    90.00000    90.00000    90.00000  Step:          60  Bead:       0 positions{angstrom}  cell{angstrom}
       O -3.15796e+00  1.06896e+00  3.53482e-01
       H -2.66770e+00  5.79506e-01 -3.29752e-01
       H -2.35547e+00  1.32871e+00  8.75222e-01
       H -4.23521e+00  1.19444e+00  5.29243e-01
4
# CELL(abcABC): 1000.00000  1000.00000  1000.00000    90.00000    90.00000    90.00000  Step:          61  Bead:       0 positions{angstrom}  cell{angstrom}
       O -3.15812e+00  1.07127e+00  3.53542e-01
       H -2.66384e+00  5.57216e-01 -3.36300e-01
       H -2.35653e+00  1.32375e+00  8.74579e-01
       H -4.23540e+00  1.18493e+00  5.35482e-01
4
# CELL(abcABC): 1000.00000  1000.00000  1000.00000    90.00000    90.00000    90.00000  Step:          62  Bead:       0 positions{angstrom}  cell{angstrom}
       O -3.15782e+00  1.07356e+00  3.53661e-01
       H -2.66368e+00  5.35428e-01 -3.42264e-01
       H -2.36197e+00  1.31874e+00  8.73678e-01
       H -4.23488e+00  1.17543e+00  5.40460e-01
4
# CELL(abcABC): 1000.00000  1000.00000  1000.00000    90.00000    90.00000    90.00000  Step:          63  Bead:       0 positions{angstrom}  cell{angstrom}
       O -3.15707e+00  1.07554e+00  3.53455e-01
       H -2.66680e+00  5.17069e-01 -3.45478e-01
       H -2.37030e+00  1.31359e+00  8.73148e-01
       H -4.23533e+00  1.16751e+00  5.47469e-01
4
# CELL(abcABC): 1000.00000  1000.00000  1000.00000    90.00000    90.00000    90.00000  Step:          64  Bead:       0 positions{angstrom}  cell{angstrom}
       O -3.15601e+00  1.07724e+00  3.52961e-01
       H -2.67261e+00  5.02290e-01 -3.44663e-01
       H -2.37992e+00  1.30904e+00  8.73639e-01
       H -4.23685e+00  1.15982e+00  5.54008e-01
4
# CELL(abcABC): 1000.00000  1000.00000  1000.00000    90.00000    90.00000    90.00000  Step:          65  Bead:       0 positions{angstrom}  cell{angstrom}
       O -3.15466e+00  1.07855e+00  3.52189e-01
       H -2.68316e+00  4.91962e-01 -3.41569e-01
       H -2.38947e+00  1.30684e+00  8.75475e-01
       H -4.23811e+00  1.15150e+00  5.61329e-01
4
# CELL(abcABC): 1000.00000  1000.00000  1000.00000    90.00000    90.00000    90.00000  Step:          66  Bead:       0 positions{angstrom}  cell{angstrom}
       O -3.15314e+00  1.07940e+00  3.51002e-01
       H -2.69752e+00  4.88283e-01 -3.34470e-01
       H -2.39848e+00  1.30452e+00  8.79555e-01
       H -4.23893e+00  1.14400e+00  5.68993e-01
4
# CELL(abcABC): 1000.00000  1000.00000  1000.00000    90.00000    90.00000    90.00000  Step:          67  Bead:       0 positions{angstrom}  cell{angstrom}
       O -3.15144e+00  1.07997e+00  3.49507e-01
       H -2.71476e+00  4.87619e-01 -3.25441e-01
       H -2.40579e+00  1.30383e+00  8.86395e-01
       H -4.24127e+00  1.13633e+00  5.76854e-01
4
# CELL(abcABC): 1000.00000  1000.00000  1000.00000    90.00000    90.00000    90.00000  Step:          68  Bead:       0 positions{angstrom}  cell{angstrom}
       O -3.14977e+00  1.08018e+00  3.47917e-01
       H -2.73366e+00  4.89902e-01 -3.14900e-01
       H -2.41111e+00  1.30479e+00  8.93885e-01
       H -4.24366e+00  1.12984e+00  5.84055e-01
4
# CELL(abcABC): 1000.00000  1000.00000  1000.00000    90.00000    90.00000    90.00000  Step:          69  Bead:       0 positions{angstrom}  cell{angstrom}
       O -3.14810e+00  1.08025e+00  3.46012e-01
       H -2.75413e+00  4.92736e-01 -3.02225e-01
       H -2.41535e+00  1.30739e+00  9.04269e-01
       H -4.24545e+00  1.12327e+00  5.91237e-01
4
# CELL(abcABC): 1000.00000  1000.00000  1000.00000    90.00000    90.00000    90.00000  Step:          70  Bead:       0 positions{angstrom}  cell{angstrom}
       O -3.14673e+00  1.08005e+00  3.44123e-01
       H -2.77412e+00  4.96654e-01 -2.91648e-01
       H -2.41785e+00  1.31210e+00  9.15803e-01
       H -4.24466e+00  1.11785e+00  5.99110e-01
4
# CELL(abcABC): 1000.00000  1000.00000  1000.00000    90.00000    90.00000    90.00000  Step:          71  Bead:       0 positions{angstrom}  cell{angstrom}
       O -3.14552e+00  1.07991e+00  3.42487e-01
       H -2.79334e+00  4.98200e-01 -2.85429e-01
       H -2.41976e+00  1.31733e+00  9.27499e-01
       H -4.24264e+00  1.11329e+00  6.07167e-01
4
# CELL(abcABC): 1000.00000  1000.00000  1000.00000    90.00000    90.00000    90.00000  Step:          72  Bead:       0 positions{angstrom}  cell{angstrom}
       O -3.14461e+00  1.07976e+00  3.41137e-01
       H -2.80966e+00  4.97254e-01 -2.83328e-01
       H -2.42102e+00  1.32341e+00  9.39675e-01
       H -4.23952e+00  1.11045e+00  6.14321e-01
4
# CELL(abcABC): 1000.00000  1000.00000  1000.00000    90.00000    90.00000    90.00000  Step:          73  Bead:       0 positions{angstrom}  cell{angstrom}
       O -3.14393e+00  1.07983e+00  3.40307e-01
       H -2.82283e+00  4.92450e-01 -2.86597e-01
       H -2.42249e+00  1.33012e+00  9.50701e-01
       H -4.23577e+00  1.10752e+00  6.19738e-01
4
# CELL(abcABC): 1000.00000  1000.00000  1000.00000    90.00000    90.00000    90.00000  Step:          74  Bead:       0 positions{angstrom}  cell{angstrom}
       O -3.14352e+00  1.08003e+00  3.40133e-01
       H -2.83220e+00  4.83965e-01 -2.96257e-01
       H -2.42469e+00  1.33672e+00  9.58592e-01
       H -4.23066e+00  1.10614e+00  6.24269e-01
4
# CELL(abcABC): 1000.00000  1000.00000  1000.00000    90.00000    90.00000    90.00000  Step:          75  Bead:       0 positions{angstrom}  cell{angstrom}
       O -3.14316e+00  1.08043e+00  3.40419e-01
       H -2.83893e+00  4.71686e-01 -3.10380e-01
       H -2.42849e+00  1.34229e+00  9.64747e-01
       H -4.22584e+00  1.10651e+00  6.27688e-01
4
# CELL(abcABC): 1000.00000  1000.00000  1000.00000    90.00000    90.00000    90.00000  Step:          76  Bead:       0 positions{angstrom}  cell{angstrom}
       O -3.14304e+00  1.08077e+00  3.40940e-01
       H -2.84235e+00  4.58462e-01 -3.25441e-01
       H -2.43349e+00  1.34726e+00  9.68232e-01
       H -4.21939e+00  1.10940e+00  6.31005e-01
4
# CELL(abcABC): 1000.00000  1000.00000  1000.00000    90.00000    90.00000    90.00000  Step:          77  Bead:       0 positions{angstrom}  cell{angstrom}
       O -3.14294e+00  1.08104e+00  3.41656e-01
       H -2.84407e+00  4.46655e-01 -3.40551e-01
       H -2.43985e+00  1.35174e+00  9.69543e-01
       H -4.21282e+00  1.11244e+00  6.33438e-01
4
# CELL(abcABC): 1000.00000  1000.00000  1000.00000    90.00000    90.00000    90.00000  Step:          78  Bead:       0 positions{angstrom}  cell{angstrom}
       O -3.14288e+00  1.08119e+00  3.42646e-01
       H -2.84580e+00  4.36182e-01 -3.54937e-01
       H -2.44586e+00  1.35607e+00  9.68005e-01
       H -4.20611e+00  1.11620e+00  6.33651e-01
4
# CELL(abcABC): 1000.00000  1000.00000  1000.00000    90.00000    90.00000    90.00000  Step:          79  Bead:       0 positions{angstrom}  cell{angstrom}
       O -3.14295e+00  1.08124e+00  3.43599e-01
       H -2.84752e+00  4.29478e-01 -3.64970e-01
       H -2.45046e+00  1.35877e+00  9.64001e-01
       H -4.19857e+00  1.11947e+00  6.32546e-01
4
# CELL(abcABC): 1000.00000  1000.00000  1000.00000    90.00000    90.00000    90.00000  Step:          80  Bead:       0 positions{angstrom}  cell{angstrom}
       O -3.14321e+00  1.08105e+00  3.44353e-01
       H -2.84852e+00  4.27074e-01 -3.71015e-01
       H -2.45386e+00  1.36056e+00  9.59230e-01
       H -4.19008e+00  1.12312e+00  6.31395e-01
4
# CELL(abcABC): 1000.00000  1000.00000  1000.00000    90.00000    90.00000    90.00000  Step:          81  Bead:       0 positions{angstrom}  cell{angstrom}
       O -3.14363e+00  1.08043e+00  3.45016e-01
       H -2.84727e+00  4.29941e-01 -3.73257e-01
       H -2.45650e+00  1.36373e+00  9.53276e-01
       H -4.18205e+00  1.12678e+00  6.29071e-01
4
# CELL(abcABC): 1000.00000  1000.00000  1000.00000    90.00000    90.00000    90.00000  Step:          82  Bead:       0 positions{angstrom}  cell{angstrom}
       O -3.14415e+00  1.07967e+00  3.45396e-01
       H -2.84526e+00  4.36648e-01 -3.70269e-01
       H -2.45700e+00  1.36541e+00  9.46297e-01
       H -4.17534e+00  1.13060e+00  6.27036e-01
4
# CELL(abcABC): 1000.00000  1000.00000  1000.00000    90.00000    90.00000    90.00000  Step:          83  Bead:       0 positions{angstrom}  cell{angstrom}
       O -3.14481e+00  1.07855e+00  3.45587e-01
       H -2.84308e+00  4.47821e-01 -3.62797e-01
       H -2.45544e+00  1.36740e+00  9.38721e-01
       H -4.16858e+00  1.13513e+00  6.24105e-01
4
# CELL(abcABC): 1000.00000  1000.00000  1000.00000    90.00000    90.00000    90.00000  Step:          84  Bead:       0 positions{angstrom}  cell{angstrom}
       O -3.14555e+00  1.07720e+00  3.45660e-01
       H -2.83953e+00  4.61480e-01 -3.53202e-01
       H -2.45274e+00  1.36966e+00  9.30646e-01
       H -4.16299e+00  1.14065e+00  6.21430e-01
4
# CELL(abcABC): 1000.00000  1000.00000  1000.00000    90.00000    90.00000    90.00000  Step:          85  Bead:       0 positions{angstrom}  cell{angstrom}