11115
# CELL(abcABC):   47.66706    47.66706    47.66706    90.00000    90.00000    90.00000  Step:       10000  Bead:       0 positions{angstrom}  cell{angstrom}
       C  1.41397e-01 -1.19562e+00  5.09736e+00
       H  1.09097e+00 -5.41370e-01  5.19102e+00
       H -5.74307e-01 -1.10248e+00  6.01114e+00
       H -4.13401e-01 -7.44741e-01  4.20137e+00
       C  5.35822e-01 -2.57385e+00  4.90601e+00
       O -2.17444e-01 -3.44293e+00  5.12066e+00
       N  1.80185e+00 -2.79386e+00  4.55140e+00
       H  2.38543e+00 -2.01094e+00  4.26253e+00
       C  2.47068e+00 -4.08517e+00  4.24402e+00
       H  1.65609e+00 -4.75434e+00  3.95659e+00
       C  3.25590e+00 -3.88233e+00  2.97913e+00
       H  4.04868e+00 -3.16438e+00  3.14565e+00
       H  2.56656e+00 -3.47080e+00  2.26209e+00
       C  3.84320e+00 -5.12362e+00  2.42839e+00
       O  5.00911e+00 -5.51367e+00  2.69223e+00
       O  3.00845e+00 -5.85224e+00  1.77239e+00
       H  3.33075e+00 -6.79816e+00  1.55415e+00
       C  3.38904e+00 -4.61700e+00  5.39487e+00
       O  4.58853e+00 -4.77114e+00  5.38480e+00
       N  2.72026e+00 -4.93622e+00  6.55941e+00
       H  3.17713e+00 -5.44177e+00  7.29177e+00
       H  1.75437e+00 -5.08436e+00  6.40183e+00
       O -2.05066e+01 -1.40441e+01 -1.01653e+01
       H -1.97789e+01 -1.34778e+01 -1.03926e+01
       H -2.11886e+01 -1.34068e+01 -9.88931e+00
       O -2.08112e+01 -1.77030e+01 -2.37278e+01
       H -2.03280e+01 -1.80059e+01 -2.45224e+01
       H -2.02983e+01 -1.68301e+01 -2.34957e+01
       O -2.64666e+01 -5.34440e+00 -7.95580e-01
       H -2.64613e+01 -4.45837e+00 -1.11651e+00
       H -2.70930e+01 -5.27713e+00 -8.04312e-02
       O -1.39821e+01 -2.03882e+01 -1.55593e+01
       H -1.37565e+01 -2.12418e+01 -1.51141e+01
       H -1.45165e+01 -2.00321e+01 -1.47830e+01
       O -1.72619e+01 -1.54873e+01 -1.37230e+01
       H -1.65572e+01 -1.48116e+01 -1.38045e+01
       H -1.71034e+01 -1.58142e+01 -1.46041e+01
       O -2.76939e+01 -1.71925e+01 -1.99042e+01
       H -2.75001e+01 -1.62368e+01 -1.99362e+01
       H -2.68569e+01 -1.76488e+01 -1.99287e+01
       O -2.21844e+01 -2.27012e+01 -1.54350e+01
       H -2.27252e+01 -2.20316e+01 -1.49711e+01
       H -2.14416e+01 -2.28340e+01 -1.48336e+01
       O -1.91385e+01 -1.62963e+01 -9.64960e+00
       H -1.96269e+01 -1.54997e+01 -9.76967e+00
       H -1.82799e+01 -1.61548e+01 -1.00800e+01
       O -1.56225e+01 -2.38658e+01 -1.98082e+01
       H -1.51778e+01 -2.44155e+01 -2.04428e+01
       H -1.64594e+01 -2.35837e+01 -2.02750e+01
       O -1.06180e+01 -2.49241e+01 -5.86495e+00
       H -1.11948e+01 -2.44072e+01 -5.25457e+00
       H -1.00640e+01 -2.42727e+01 -6.26230e+00
       O -1.22604e+01 -1.73895e+01 -1.75074e+01
       H -1.19040e+01 -1.75699e+01 -1.84212e+01
       H -1.15495e+01 -1.77311e+01 -1.68915e+01
       O -5.54102e+00  2.89947e-01 -8.41371e+00
       H -4.61938e+00 -9.61671e-02 -8.25994e+00
       H -5.43279e+00  1.22353e+00 -8.35193e+00
       O -1.07368e+01 -1.73942e+01 -1.97669e+01
       H -1.00102e+01 -1.78123e+01 -2.01532e+01
       H -1.08721e+01 -1.67460e+01 -2.04942e+01
       O -1.78667e+01 -5.25120e+00 -1.07724e+01
       H -1.83548e+01 -6.10779e+00 -1.07520e+01
       H -1.71129e+01 -5.61726e+00 -1.02893e+01
       O -1.65922e+01 -3.08020e+01 -2.37028e+01
       H -1.65352e+01 -3.12088e+01 -2.45688e+01
       H -1.61579e+01 -3.14478e+01 -2.31396e+01
       O -5.75695e+00 -2.30950e+01 -1.33198e+01
       H -6.19065e+00 -2.22484e+01 -1.32228e+01
       H -4.83323e+00 -2.28248e+01 -1.31662e+01
       O -2.45957e+01 -2.37596e+01 -9.94158e+00
       H -2.42509e+01 -2.31723e+01 -9.20170e+00
       H -2.37617e+01 -2.40832e+01 -1.03814e+01
       O -8.47073e+00 -1.86821e+01 -2.07237e+01
       H -7.82755e+00 -1.82908e+01 -2.13730e+01
       H -7.83368e+00 -1.90285e+01 -2.00704e+01
       O -1.81277e+01 -1.84188e+01 -3.53445e+00
       H -1.74140e+01 -1.90575e+01 -3.73627e+00
       H -1.85032e+01 -1.83839e+01 -4.38589e+00
       O -1.31126e+01 -1.45321e+01 -2.18882e+01
       H -1.23088e+01 -1.51099e+01 -2.19125e+01
       H -1.35229e+01 -1.46792e+01 -2.27591e+01
       O -1.96728e+01 -2.67150e+01 -3.64915e+00
       H -1.90265e+01 -2.69998e+01 -2.91203e+00
       H -2.04482e+01 -2.67492e+01 -3.13523e+00
       O -3.28080e+01 -8.81257e+00 -2.37851e+01
       H -3.26782e+01 -9.62648e+00 -2.32921e+01
       H -3.36434e+01 -8.98647e+00 -2.42727e+01
       O -3.13290e+00 -4.18212e+00 -2.42136e+01
       H -3.08762e+00 -5.10958e+00 -2.44365e+01
       H -3.83061e+00 -4.14287e+00 -2.36140e+01
       O -2.69699e+01 -1.29900e+01 -1.13208e+01
       H -2.68127e+01 -1.39225e+01 -1.13833e+01
       H -2.68614e+01 -1.27750e+01 -1.03829e+01
       O -1.68705e+01 -2.50109e+01 -2.40598e+01
       H -1.62921e+01 -2.57411e+01 -2.40402e+01
       H -1.63630e+01 -2.41801e+01 -2.39390e+01
       O -1.92648e+01 -1.80101e+01 -1.61734e+01
       H -1.95266e+01 -1.70651e+01 -1.61955e+01
       H -1.89361e+01 -1.81198e+01 -1.71203e+01
       O -7.43818e+00  6.69503e+00 -6.21254e+00
       H -8.01043e+00  6.18182e+00 -6.81991e+00
       H -6.78659e+00  6.04001e+00 -6.04370e+00
       O -1.13135e+01  5.60385e+00 -6.83114e+00
       H -1.06274e+01  4.98574e+00 -6.52874e+00
       H -1.08597e+01  6.47103e+00 -6.74121e+00
       O -1.63955e+01 -1.16110e+01 -5.39822e+00
       H -1.61229e+01 -1.10473e+01 -6.11529e+00
       H -1.63699e+01 -1.09725e+01 -4.64527e+00
       O -8.90049e+00 -1.87287e+01 -1.70621e+01
       H -9.45352e+00 -1.94874e+01 -1.70207e+01
       H -8.49771e+00 -1.88154e+01 -1.79300e+01
       O  1.49304e+00 -5.61227e+00 -2.99867e+01
       H  1.78749e+00 -6.17869e+00 -2.92513e+01
       H  1.34990e+00 -6.29756e+00 -3.06319e+01
       O -4.99821e+00 -3.17457e+01 -9.02265e+00
       H -4.52428e+00 -3.22362e+01 -8.28924e+00
       H -5.33836e+00 -3.09411e+01 -8.57079e+00
       O  4.32607e+00 -1.48537e+00 -1.44182e+01
       H  5.13251e+00 -1.85585e+00 -1.39811e+01
       H  4.65652e+00 -1.52444e+00 -1.53146e+01
       O -2.40858e+01 -1.97586e+01 -1.13919e+01
       H -2.49267e+01 -1.99786e+01 -1.18396e+01
       H -2.41208e+01 -1.87482e+01 -1.13269e+01
       O -7.13963e+00 -1.59966e+01 -1.93369e+01
       H -6.52383e+00 -1.58882e+01 -1.86219e+01
       H -7.03062e+00 -1.69290e+01 -1.95822e+01
       O -1.56783e+01 -2.02392e+01 -2.19700e+01
       H -1.58816e+01 -1.94839e+01 -2.14305e+01
       H -1.49186e+01 -2.06687e+01 -2.14453e+01
       O -2.06978e+01 -1.00952e+01 -3.74674e+00
       H -2.02169e+01 -1.04741e+01 -4.52100e+00
       H -2.11459e+01 -1.09242e+01 -3.49297e+00
       O -1.36431e+01 -2.85209e+01 -9.63210e+00
       H -1.44286e+01 -2.81008e+01 -1.00237e+01
       H -1.30680e+01 -2.77829e+01 -9.26668e+00
       O -1.66066e+00 -5.52199e+00  5.81605e+00
       H -1.21798e+00 -4.60868e+00  5.73912e+00
       H -1.15291e+00 -5.97124e+00  5.04805e+00
       O -4.73521e-01 -1.15281e+01 -3.00342e+01
       H -1.17411e+00 -1.17960e+01 -3.06508e+01
       H  2.05066e-01 -1.12256e+01 -3.06441e+01
       O -5.57828e+00 -2.80494e+01 -1.91566e+01
       H -5.43875e+00 -2.70719e+01 -1.90486e+01
       H -4.76775e+00 -2.84418e+01 -1.87464e+01
       O -2.03816e+01 -1.04160e+01 -1.16056e+01
       H -2.10778e+01 -1.06050e+01 -1.08950e+01
       H -2.08889e+01 -1.03715e+01 -1.24808e+01
       O -8.85209e+00 -8.91400e+00 -1.14423e+01
       H -8.16745e+00 -8.24340e+00 -1.18567e+01
       H -8.51473e+00 -9.61654e+00 -1.20088e+01
       O -2.12704e+01 -5.26915e+01 -1.99909e+01
       H -2.17578e+01 -5.31224e+01 -1.92673e+01
       H -2.04890e+01 -5.33339e+01 -2.00334e+01
       O -1.73039e+01 -1.64875e+01 -4.30336e+01
       H -1.66632e+01 -1.58212e+01 -4.33761e+01
       H -1.73725e+01 -1.69850e+01 -4.38161e+01
       O -1.21335e+01 -1.30450e+01 -2.97020e+01
       H -1.20395e+01 -1.21591e+01 -2.92907e+01
       H -1.17997e+01 -1.28628e+01 -3.05802e+01
       O -2.29982e+01 -1.64604e+01 -1.00575e+01
       H -2.22291e+01 -1.69342e+01 -1.02395e+01
       H -2.37129e+01 -1.69893e+01 -1.03915e+01
       O -1.41453e+01 -8.63652e+00 -1.19597e+01
       H -1.50484e+01 -8.53556e+00 -1.22372e+01
       H -1.42642e+01 -8.84845e+00 -1.10465e+01
       O -1.20660e+01 -2.09715e+01 -1.24541e+01
       H -1.14576e+01 -2.16177e+01 -1.28953e+01
       H -1.29834e+01 -2.14230e+01 -1.24933e+01
       O  2.11419e-01 -8.25956e+00  1.43999e+00
       H  5.33303e-01 -7.55006e+00  8.42530e-01
       H  1.10321e+00 -8.70707e+00  1.69423e+00
       O -7.21569e+00  4.33436e+00  1.73782e+00
       H -7.76754e+00  3.56133e+00  1.66374e+00
       H -7.72523e+00  5.03749e+00  1.23849e+00
       O  1.03009e+00 -3.62620e+00 -1.00547e+01
       H  1.59485e+00 -3.34556e+00 -9.28812e+00
       H  1.63420e+00 -3.47921e+00 -1.08535e+01
       O -1.17670e+01 -1.03292e+01 -5.95214e+00
       H -1.17657e+01 -1.08806e+01 -6.69465e+00
       H -1.20139e+01 -9.52669e+00 -6.39136e+00
       O -1.17436e+01 -2.72898e+00 -4.18490e+00
       H -1.24397e+01 -3.08913e+00 -4.76108e+00
       H -1.19176e+01 -3.41935e+00 -3.54273e+00
       O -1.18952e+01 -1.85292e+01 -6.99246e+00
       H -1.09638e+01 -1.82946e+01 -6.85144e+00
       H -1.23697e+01 -1.82706e+01 -6.17385e+00
       O -1.30610e+01 -2.71352e+01 -2.90415e+01
       H -1.33386e+01 -2.62069e+01 -2.89098e+01
       H -1.39003e+01 -2.76184e+01 -2.88702e+01
       O -1.87044e+01 -2.21179e+01 -1.21015e+01
       H -1.80472e+01 -2.28349e+01 -1.18603e+01
       H -1.95012e+01 -2.26347e+01 -1.24093e+01
       O -1.11903e+01 -2.56127e+01 -3.39606e-01
       H -1.12896e+01 -2.63884e+01 -9.60949e-01
       H -1.06169e+01 -2.50622e+01 -8.68235e-01
       O -1.92676e+00  3.06418e+00 -4.70924e+00
       H -1.84116e+00  2.19610e+00 -4.29525e+00
       H -2.04205e+00  2.83774e+00 -5.64922e+00
       O -1.45924e+01 -2.92538e+01 -2.23653e+01
       H -1.54014e+01 -2.95617e+01 -2.28433e+01
       H -1.40459e+01 -3.00342e+01 -2.24638e+01
       O -8.90966e+00 -4.04999e+00 -3.03652e+01
       H -8.94803e+00 -4.83860e+00 -3.08999e+01
       H -9.51984e+00 -3.44764e+00 -3.08129e+01
       O -2.36918e+01 -2.28785e+01 -7.07773e+00
       H -2.38901e+01 -2.20489e+01 -7.43447e+00
       H -2.28966e+01 -2.29632e+01 -7.59807e+00
       O -1.10974e+01 -3.36464e+01 -2.38662e+01
       H -1.17171e+01 -3.33267e+01 -2.31305e+01
       H -1.12636e+01 -3.46346e+01 -2.38457e+01
       O -5.67079e+00 -2.34475e+01 -9.62657e+00
       H -6.21741e+00 -2.36315e+01 -8.87596e+00
       H -5.76157e+00 -2.24673e+01 -9.58334e+00
       O -6.88513e+00 -1.53704e+01 -1.46858e+01
       H -5.97829e+00 -1.53867e+01 -1.43359e+01
       H -6.88235e+00 -1.62323e+01 -1.50985e+01
       O -1.26522e+01 -3.21449e+01 -3.45881e+00
       H -1.28601e+01 -3.14531e+01 -2.77186e+00
       H -1.33887e+01 -3.27580e+01 -3.19164e+00
       O -3.42051e+01 -8.13730e+00 -3.76206e+00
       H -3.52319e+01 -8.18212e+00 -3.90955e+00
       H -3.41949e+01 -8.54579e+00 -2.87986e+00
       O -1.86118e+01 -2.19967e+01 -2.45304e+01
       H -1.76773e+01 -2.16962e+01 -2.46066e+01
       H -1.90465e+01 -2.12430e+01 -2.42387e+01
       O -1.98771e+01 -6.76982e+00 -3.00962e+01
       H -1.89546e+01 -7.16292e+00 -3.02368e+01
       H -2.00955e+01 -6.70450e+00 -3.10545e+01
       O -2.63112e+01 -8.22429e+00 -1.84454e+01
       H -2.72976e+01 -8.48209e+00 -1.84261e+01
       H -2.61890e+01 -8.07392e+00 -1.94277e+01
       O -2.39578e+01 -1.83955e+01 -4.32444e+00
       H -2.30010e+01 -1.87547e+01 -4.22122e+00
       H -2.37893e+01 -1.75512e+01 -4.83790e+00
       O -3.90065e+00 -1.86604e+01 -1.04173e+01
       H -3.02769e+00 -1.91076e+01 -1.03095e+01
       H -3.68429e+00 -1.77921e+01 -1.01527e+01
       O -1.70125e+01 -2.54072e+01 -2.68521e+01
       H -1.71991e+01 -2.51279e+01 -2.59447e+01
       H -1.76239e+01 -2.48543e+01 -2.73578e+01
       O -2.01285e+01 -1.52174e+01 -1.54934e+01
       H -1.95676e+01 -1.49868e+01 -1.62736e+01
       H -2.09772e+01 -1.46521e+01 -1.56030e+01
       O -2.20604e+01 -3.00321e+01 -8.88277e+00
       H -2.20570e+01 -3.05582e+01 -9.69522e+00
       H -2.14117e+01 -3.04609e+01 -8.36785e+00
       O -2.55739e+01 -3.06712e+01 -2.94767e+01
       H -2.50762e+01 -3.11381e+01 -3.01032e+01
       H -2.63849e+01 -3.11660e+01 -2.95554e+01
       O -6.18955e+00 -1.44729e+01  6.32646e+00
       H -5.75248e+00 -1.35444e+01  6.32455e+00
       H -7.14912e+00 -1.42663e+01  6.17732e+00
       O -3.06629e+01 -7.30331e+00 -3.73909e+00
       H -3.09914e+01 -6.45276e+00 -4.07902e+00
       H -2.97769e+01 -7.41707e+00 -3.97762e+00
       O -1.93892e+01 -1.81605e+01 -6.09935e+00
       H -2.00040e+01 -1.88260e+01 -6.50990e+00
       H -1.86794e+01 -1.82297e+01 -6.71770e+00
       O -1.93680e+01 -2.12045e+01 -3.07556e+01
       H -1.95283e+01 -2.02385e+01 -3.08440e+01
       H -2.01781e+01 -2.14995e+01 -3.03281e+01
       O -6.73854e+00 -2.88009e+01 -3.91724e+00
       H -6.26540e+00 -2.79508e+01 -4.04561e+00
       H -6.93743e+00 -2.88007e+01 -2.99890e+00
       O -9.71355e+00 -1.61498e+01 -1.59647e+01
       H -9.09964e+00 -1.64498e+01 -1.52660e+01
       H -9.65339e+00 -1.68583e+01 -1.65649e+01
       O -1.89652e+01  7.56244e-01 -9.20492e+00
       H -1.84408e+01  1.00364e+00 -9.95581e+00
       H -1.98653e+01  1.12062e+00 -9.30760e+00
       O -1.14860e+01 -2.96188e+01 -1.99708e+01
       H -1.12566e+01 -2.87660e+01 -1.95332e+01
       H -1.09266e+01 -2.96145e+01 -2.07995e+01
       O -1.27705e+01 -2.28395e+01 -3.13786e+01
       H -1.30538e+01 -2.26343e+01 -3.22671e+01
       H -1.36417e+01 -2.27599e+01 -3.09733e+01
       O -1.26765e+01 -2.49496e+01 -1.15301e+01
       H -1.24265e+01 -2.46670e+01 -1.06794e+01
       H -1.33414e+01 -2.42367e+01 -1.17539e+01
       O -1.69856e+01 -5.87387e+00 -6.55048e+00
       H -1.75637e+01 -5.29387e+00 -7.03085e+00
       H -1.66064e+01 -5.32465e+00 -5.86724e+00
       O -1.72894e+01 -2.38023e+01 -3.48975e+01
       H -1.74705e+01 -2.28408e+01 -3.45932e+01
       H -1.69053e+01 -2.37774e+01 -3.58055e+01
       O -3.27291e+01 -2.07139e+01 -1.40785e+01
       H -3.18530e+01 -2.09483e+01 -1.37075e+01
       H -3.32334e+01 -2.15178e+01 -1.38377e+01
       O -2.83826e+01 -1.82550e+01  6.66837e+00
       H -2.78714e+01 -1.84983e+01  5.87409e+00
       H -2.91947e+01 -1.88039e+01  6.60208e+00
       O -1.04446e+01 -1.48908e+01 -4.12757e+00
       H -1.00310e+01 -1.52138e+01 -4.91735e+00
       H -1.09447e+01 -1.40700e+01 -4.34369e+00
       O -1.18566e+01 -1.48259e+01 -9.75764e+00
       H -1.22417e+01 -1.55579e+01 -1.02867e+01
       H -1.22711e+01 -1.40204e+01 -1.02234e+01
       O  8.38089e+00 -1.08127e+01  1.66540e+01
       H  8.18464e+00 -1.16582e+01  1.61371e+01
       H  7.55531e+00 -1.08190e+01  1.71887e+01
       O -8.41576e+00  1.44503e+00 -1.22214e+01
       H -7.61241e+00  1.53003e+00 -1.27923e+01
       H -8.12580e+00  1.87610e+00 -1.13484e+01
       O -2.01332e+00  6.92894e+00 -5.06260e+00
       H -1.56176e+00  6.61353e+00 -4.26838e+00
       H -2.71718e+00  7.54815e+00 -4.72770e+00
       O -1.27957e+01 -1.21992e+01 -2.47646e+01
       H -1.23144e+01 -1.14497e+01 -2.51437e+01
       H -1.23308e+01 -1.23517e+01 -2.39389e+01
       O -5.34567e+00 -1.15025e+01 -2.11592e+01
       H -5.49045e+00 -1.24534e+01 -2.07721e+01
       H -4.57079e+00 -1.11831e+01 -2.07423e+01
       O -1.41055e+01 -1.07475e+01 -2.78476e+01
       H -1.36717e+01 -9.91167e+00 -2.73896e+01
       H -1.47865e+01 -1.10073e+01 -2.72109e+01
       O -1.44557e+01 -2.84433e+01 -1.96271e+01
       H -1.35651e+01 -2.88068e+01 -1.95769e+01
       H -1.47385e+01 -2.87938e+01 -2.04964e+01
       O -5.32235e+00 -5.01719e+00 -8.49438e+00
       H -5.90527e+00 -4.69172e+00 -7.76158e+00
       H -5.78757e+00 -5.87882e+00 -8.58865e+00
       O -1.85582e+01 -2.24689e+01 -1.40605e+00
       H -1.77463e+01 -2.19629e+01 -1.61387e+00
       H -1.91186e+01 -2.17439e+01 -1.09702e+00
       O -1.19006e+00 -1.88073e+00 -1.26528e+01
       H -4.66618e-01 -2.30611e+00 -1.31881e+01
       H -1.84705e+00 -1.84988e+00 -1.33332e+01
       O -8.00213e+00 -6.56103e+00 -1.27444e+01
       H -8.09167e+00 -5.60630e+00 -1.25155e+01
       H -8.56955e+00 -6.58864e+00 -1.35209e+01
       O  8.97616e+00  2.78617e+00 -3.10207e+01
       H  8.63939e+00  2.36867e+00 -3.01475e+01
       H  9.86415e+00  2.37665e+00 -3.11080e+01
       O -2.08744e+01 -1.96474e+01 -7.92891e+00
       H -2.18333e+01 -1.98631e+01 -8.08960e+00
       H -2.04990e+01 -1.96014e+01 -8.82141e+00
       O -2.09863e+01 -2.66827e+01 -1.31390e+01
       H -2.17989e+01 -2.70384e+01 -1.27634e+01
       H -2.10111e+01 -2.70898e+01 -1.40977e+01
       O -8.23255e+00 -1.75765e+01 -1.76022e+00
       H -7.29896e+00 -1.73572e+01 -2.09579e+00
       H -7.99981e+00 -1.80987e+01 -9.48407e-01
       O -1.10705e+01 -1.88246e+01 -2.26835e+01
       H -1.03922e+01 -1.91650e+01 -2.19974e+01
       H -1.14508e+01 -1.96441e+01 -2.29799e+01
       O -1.35904e+01 -3.49824e+00 -1.77679e+01
       H -1.33739e+01 -4.05866e+00 -1.69623e+01
       H -1.43815e+01 -3.12101e+00 -1.73800e+01
       O -1.50210e+01 -2.17135e+01 -1.81489e+01
       H -1.48970e+01 -2.12983e+01 -1.89984e+01
       H -1.52474e+01 -2.26032e+01 -1.84158e+01
       O -9.95740e+00 -1.24288e+01 -1.39842e+01
       H -1.06782e+01 -1.17752e+01 -1.35496e+01
       H -1.01809e+01 -1.32678e+01 -1.35611e+01
       O -1.68948e+01 -3.71050e+01 -3.92547e+01
       H -1.74638e+01 -3.63130e+01 -3.90843e+01
       H -1.71719e+01 -3.77150e+01 -3.84833e+01
       O -2.36021e+01 -1.07337e+01 -1.17495e+01
       H -2.35615e+01 -1.15352e+01 -1.23148e+01
       H -2.33622e+01 -1.11194e+01 -1.09046e+01
       O -1.12528e+01 -2.96426e+01 -2.65805e+01
       H -1.13104e+01 -2.95408e+01 -2.75402e+01
       H -1.10410e+01 -3.05923e+01 -2.64003e+01
       O -1.41273e+01 -2.28265e+01 -1.23687e+01
       H -1.49222e+01 -2.32104e+01 -1.28765e+01
       H -1.45604e+01 -2.25147e+01 -1.15176e+01
       O -2.48080e+01 -2.86187e+01 -2.33293e+01
       H -2.42265e+01 -2.83452e+01 -2.41279e+01
       H -2.41327e+01 -2.87902e+01 -2.27124e+01
       O -1.66653e+01 -1.61681e+01 -1.10567e+01
       H -1.68013e+01 -1.60735e+01 -1.20473e+01
       H -1.57432e+01 -1.63431e+01 -1.10006e+01
       O -6.27310e+00 -3.07258e+01 -3.49990e+01
       H -5.33564e+00 -3.04080e+01 -3.49627e+01
       H -6.75661e+00 -3.01011e+01 -3.43408e+01
       O -3.90585e+00 -1.85982e+01 -2.50080e+01
       H -4.10903e+00 -1.94768e+01 -2.52830e+01
       H -3.91908e+00 -1.81173e+01 -2.58448e+01
       O -1.52124e+01 -1.29305e+01 -1.56992e+01
       H -1.45035e+01 -1.36340e+01 -1.59659e+01
       H -1.46605e+01 -1.21458e+01 -1.54639e+01
       O -1.90360e+01 -6.50313e+00 -1.91850e+01
       H -1.82237e+01 -7.04882e+00 -1.90457e+01
       H -1.90326e+01 -6.03088e+00 -1.83523e+01
       O -1.12033e+01 -3.94338e+00 -1.93560e+01
       H -1.19647e+01 -3.96420e+00 -1.87469e+01
       H -1.16095e+01 -4.25154e+00 -2.01744e+01
       O -8.74569e+00 -2.58187e-01  1.83087e-01
       H -8.78915e+00 -1.04617e-01 -7.81585e-01
       H -7.77591e+00 -3.60975e-01  2.84414e-01
       O -1.73886e+01 -1.20319e+01 -1.74463e+00
       H -1.80732e+01 -1.23363e+01 -2.30877e+00
       H -1.78998e+01 -1.18829e+01 -9.82594e-01
       O -1.38798e+01 -1.63386e+01 -1.13628e+01
       H -1.33257e+01 -1.68363e+01 -1.19496e+01
       H -1.39891e+01 -1.68952e+01 -1.05895e+01
       O -2.37348e+01 -1.37327e+01 -9.63241e+00
       H -2.45594e+01 -1.40372e+01 -9.22259e+00
       H -2.33539e+01 -1.46760e+01 -9.73016e+00
       O -1.26922e+01 -8.14449e+00 -7.28208e+00
       H -1.25767e+01 -7.27499e+00 -6.97110e+00
       H -1.26079e+01 -8.01901e+00 -8.22128e+00
       O -2.03450e+01 -1.93777e+01 -3.92632e+01
       H -2.05560e+01 -2.00152e+01 -3.99782e+01
       H -1.94115e+01 -1.94852e+01 -3.93033e+01
       O -1.34218e+01 -2.07635e+01 -3.71913e+00
       H -1.29403e+01 -2.00032e+01 -4.12604e+00
       H -1.32200e+01 -2.13594e+01 -4.46642e+00
       O -7.94798e-01 -1.30834e+01 -1.76297e+01
       H -9.26273e-01 -1.36378e+01 -1.67856e+01
       H -1.69131e+00 -1.29285e+01 -1.79964e+01
       O -3.74172e+01 -1.04154e+01  9.86099e+00
       H -3.75689e+01 -1.13913e+01  9.70398e+00
       H -3.64419e+01 -1.03248e+01  9.57950e+00
       O -6.39573e+00 -1.67700e+01 -8.22693e+00
       H -5.61807e+00 -1.73098e+01 -8.16546e+00
       H -7.02253e+00 -1.72724e+01 -7.64323e+00
       O -2.37284e+01 -1.91491e+01  1.66350e+01
       H -2.46186e+01 -1.89604e+01  1.62512e+01
       H -2.32928e+01 -1.83577e+01  1.68002e+01
       O -7.56025e+00 -2.98042e+01 -2.96480e+01
       H -6.73638e+00 -2.99646e+01 -3.01641e+01
       H -7.67424e+00 -3.06940e+01 -2.92600e+01
       O -2.15492e+01 -2.64686e+01 -6.97071e+00
       H -2.11138e+01 -2.57899e+01 -6.42843e+00
       H -2.09910e+01 -2.63353e+01 -7.81240e+00
       O -1.56188e+01 -1.53485e+01  1.01242e+01
       H -1.57885e+01 -1.44678e+01  9.77033e+00
       H -1.64206e+01 -1.57869e+01  1.00601e+01
       O -1.48025e+01 -9.85538e+00 -9.32648e+00
       H -1.52028e+01 -1.06691e+01 -9.69665e+00
       H -1.50413e+01 -9.80024e+00 -8.40812e+00
       O -3.44589e+01 -1.67848e+01 -3.48634e+00
       H -3.40992e+01 -1.66317e+01 -2.59662e+00
       H -3.51950e+01 -1.73191e+01 -3.28895e+00
       O -1.73700e+01 -2.63145e+01 -2.06720e+01
       H -1.73393e+01 -2.72729e+01 -2.09075e+01
       H -1.81445e+01 -2.59688e+01 -2.12063e+01
       O -1.66802e+01 -1.11674e+01  1.60795e+00
       H -1.61528e+01 -1.08198e+01  8.64483e-01
       H -1.62850e+01 -1.06514e+01  2.38779e+00
       O -1.33321e+01 -2.55506e+01 -3.77637e+00
       H -1.28939e+01 -2.47958e+01 -3.31670e+00
       H -1.33889e+01 -2.50799e+01 -4.65992e+00
       O -1.37571e+01 -2.89416e+01 -6.08760e+00
       H -1.34427e+01 -2.82209e+01 -6.65443e+00
       H -1.28518e+01 -2.92366e+01 -5.70763e+00
       O -3.70598e+00 -6.96155e+00  1.53884e+00
       H -4.21689e+00 -7.60208e+00  9.67966e-01
       H -4.27927e+00 -6.91955e+00  2.30915e+00
       O -2.29825e+01 -2.56187e+01 -2.45742e+00
       H -2.21114e+01 -2.52109e+01 -2.37195e+00
       H -2.32945e+01 -2.49450e+01 -3.03267e+00
       O  3.21713e-01 -2.51130e+00  1.40813e+00
       H -4.25379e-02 -3.27127e+00  1.94984e+00
       H -5.39223e-01 -2.18028e+00  9.68241e-01
       O -1.71578e+01 -2.28323e+01 -6.91275e+00
       H -1.73102e+01 -2.22692e+01 -6.14433e+00
       H -1.66045e+01 -2.35105e+01 -6.51309e+00
       O -1.88655e+01 -2.31777e+01 -9.01640e+00
       H -1.83677e+01 -2.35936e+01 -9.76318e+00
       H -1.81423e+01 -2.30020e+01 -8.39517e+00
       O -2.12264e+01 -1.69791e+01 -4.48690e+00
       H -2.06148e+01 -1.72177e+01 -3.77729e+00
       H -2.07982e+01 -1.73439e+01 -5.31028e+00
       O -6.50833e+00 -9.24239e+00 -3.82494e+00
       H -6.55572e+00 -9.88151e+00 -3.02083e+00
       H -6.30825e+00 -9.82808e+00 -4.55908e+00
       O -6.69181e+00 -1.53586e+01 -1.03369e+01
       H -6.85004e+00 -1.60381e+01 -1.09614e+01
       H -6.70927e+00 -1.58350e+01 -9.47843e+00
       O -2.39414e+01 -1.84779e+01 -1.46551e+01
       H -2.30874e+01 -1.88371e+01 -1.49017e+01
       H -2.36315e+01 -1.75149e+01 -1.45645e+01
       O -1.20933e+00 -1.11578e+01 -8.98760e+00
       H -1.58547e+00 -1.09042e+01 -9.89035e+00
       H -2.05746e+00 -1.12676e+01 -8.56185e+00
       O -9.82669e+00 -2.38706e+01 -1.28987e+01
       H -9.25757e+00 -2.39812e+01 -1.21232e+01
       H -9.73943e+00 -2.46639e+01 -1.34600e+01
       O -7.93862e+00 -9.84408e+00 -2.67160e+01
       H -7.92018e+00 -9.77441e+00 -2.76927e+01
       H -7.17611e+00 -9.35372e+00 -2.64577e+01
       O -1.65581e+01 -2.14115e+00 -3.39483e+00
       H -1.59591e+01 -2.22573e+00 -2.63381e+00
       H -1.62316e+01 -1.29757e+00 -3.78691e+00
       O -5.79230e+00 -2.55248e+00 -1.31209e+01
       H -6.21115e+00 -1.90119e+00 -1.25680e+01
       H -5.57108e+00 -3.23592e+00 -1.24841e+01
       O -1.50154e+01  2.17779e+00 -7.82002e+00
       H -1.42481e+01  2.73949e+00 -8.17220e+00
       H -1.55195e+01  2.92459e+00 -7.34580e+00
       O -9.22495e+00 -6.71222e+00 -1.63412e+01
       H -8.37997e+00 -6.88921e+00 -1.60501e+01
       H -9.49166e+00 -5.97474e+00 -1.56878e+01
       O -2.40083e+01 -1.03215e+01 -4.86531e+00
       H -2.38049e+01 -1.11896e+01 -4.54530e+00
       H -2.31552e+01 -9.97971e+00 -5.12687e+00
       O -1.62943e+01 -2.45522e+01 -2.28497e+00
       H -1.56025e+01 -2.48253e+01 -1.58610e+00
       H -1.65668e+01 -2.36980e+01 -1.89198e+00
       O -4.13996e+00  5.54459e-01  3.56260e+00
       H -3.84969e+00 -1.86233e-01  2.96460e+00
       H -4.84224e+00  1.18066e-01  4.11521e+00
       O -2.24438e+01 -1.60257e+01 -7.30346e+00
       H -2.33552e+01 -1.62196e+01 -6.85675e+00
       H -2.25510e+01 -1.62801e+01 -8.27708e+00
       O -3.26000e+00 -2.56480e+01 -3.10658e+01
       H -4.06470e+00 -2.51165e+01 -3.12680e+01
       H -2.57285e+00 -2.52511e+01 -3.15894e+01
       O -3.34702e+00 -1.80772e+01 -1.93731e+01
       H -4.13926e+00 -1.76195e+01 -1.91558e+01
       H -3.32515e+00 -1.80890e+01 -2.03426e+01
       O -1.06916e+01 -1.66078e+01  6.52325e+00
       H -1.03949e+01 -1.69902e+01  5.69974e+00
       H -1.01153e+01 -1.69953e+01  7.20693e+00
       O -1.96560e+01 -1.65028e+01 -1.31920e+01
       H -1.88019e+01 -1.61066e+01 -1.31890e+01
       H -1.99270e+01 -1.59959e+01 -1.40003e+01
       O -1.34906e+01 -7.21019e+00 -1.95852e+01
       H -1.37070e+01 -7.33701e+00 -1.86288e+01
       H -1.25879e+01 -6.88435e+00 -1.95406e+01
       O -2.32230e+01 -1.57406e+01 -1.44572e+01
       H -2.26374e+01 -1.54401e+01 -1.37308e+01
       H -2.28774e+01 -1.52086e+01 -1.51960e+01
       O -8.56516e+00 -2.16081e+01 -1.39422e+01
       H -8.77524e+00 -2.24292e+01 -1.34752e+01
       H -8.31963e+00 -2.20366e+01 -1.47760e+01
       O -1.58980e+01  5.08127e+00 -1.26257e+01
       H -1.58211e+01  5.43230e+00 -1.35315e+01
       H -1.65141e+01  5.71882e+00 -1.22204e+01
       O -1.67325e+00 -2.00296e+01 -1.36355e+01
       H -8.12498e-01 -2.04229e+01 -1.38145e+01
       H -1.46891e+00 -1.90753e+01 -1.35359e+01
       O -5.89918e+00 -2.92097e+01 -1.07709e+01
       H -5.06094e+00 -2.94862e+01 -1.09865e+01
       H -6.48560e+00 -2.98197e+01 -1.11846e+01
       O -2.47365e+01 -1.62507e+01  4.20963e+00
       H -2.55995e+01 -1.62003e+01  3.70290e+00
       H -2.41174e+01 -1.58750e+01  3.50192e+00
       O -9.23268e+00 -2.27386e+01 -6.50947e+00
       H -8.34469e+00 -2.32140e+01 -6.62756e+00
       H -9.01560e+00 -2.19749e+01 -7.07796e+00
       O -9.27857e+00 -2.27179e+01 -2.30961e+01
       H -8.62349e+00 -2.20167e+01 -2.32410e+01
       H -8.96895e+00 -2.33530e+01 -2.38043e+01
       O -3.44626e+01 -2.82379e+01 -2.38153e+01
       H -3.47388e+01 -2.77070e+01 -2.30561e+01
       H -3.52827e+01 -2.83632e+01 -2.43884e+01
       O -3.21320e+01 -1.78617e+01 -4.34989e+00
       H -3.29379e+01 -1.74322e+01 -4.04380e+00
       H -3.23791e+01 -1.87924e+01 -4.61094e+00
       O -1.39516e+00 -9.30935e+00 -3.24669e+00
       H -1.85574e+00 -8.43992e+00 -3.19053e+00
       H -2.07466e+00 -9.95648e+00 -2.97568e+00
       O -1.31634e+01 -2.17177e+01 -3.59256e+01
       H -1.31483e+01 -2.24570e+01 -3.53442e+01
       H -1.23152e+01 -2.12789e+01 -3.57871e+01
       O -1.97116e+01 -2.67589e+01 -3.02476e+01
       H -2.02558e+01 -2.76204e+01 -3.03109e+01
       H -1.87755e+01 -2.71212e+01 -3.00677e+01
       O -1.81472e+00 -9.29769e+00  4.46654e+00
       H -1.32033e+00 -1.00187e+01  4.02015e+00
       H -1.43069e+00 -9.29040e+00  5.36729e+00
       O -3.37657e+01 -7.94843e+00 -6.38873e+00
       H -3.35113e+01 -8.85734e+00 -6.52049e+00
       H -3.39578e+01 -7.96094e+00 -5.46350e+00
       O -2.77773e+01 -1.19561e+01 -6.46915e+00
       H -2.74799e+01 -1.10314e+01 -6.44938e+00
       H -2.85494e+01 -1.19525e+01 -5.85823e+00
       O -2.39353e+01  3.28230e+00 -1.33937e+01
       H -2.38324e+01  3.11987e+00 -1.24303e+01
       H -2.48695e+01  3.08418e+00 -1.35166e+01
       O -3.67643e+00 -1.42927e+00  1.66324e+00
       H -3.99976e+00 -2.37494e+00  1.66246e+00
       H -2.82886e+00 -1.38515e+00  1.11055e+00
       O -6.01031e+00 -5.21466e-01  3.56644e-01
       H -5.66777e+00 -6.12615e-01 -5.62237e-01
       H -5.16382e+00 -7.21361e-01  7.90104e-01
       O -1.38960e+01 -1.80976e+01 -9.05752e+00
       H -1.32230e+01 -1.83542e+01 -8.40120e+00
       H -1.45642e+01 -1.77570e+01 -8.46392e+00
       O -3.63733e+01 -1.83785e+01  6.71854e-01
       H -3.55859e+01 -1.83418e+01  1.19471e+00
       H -3.59557e+01 -1.85556e+01 -1.73129e-01
       O -1.85016e+01 -8.79086e-02 -2.82707e+01
       H -1.85421e+01  5.26277e-03 -2.92477e+01
       H -1.88148e+01  7.96964e-01 -2.79284e+01
       O -2.23780e+01 -9.73973e+00 -1.81557e+01
       H -2.27833e+01 -9.21439e+00 -1.88231e+01
       H -2.30774e+01 -9.72818e+00 -1.74460e+01
       O -1.52647e+01 -1.46751e+01  4.30460e+00
       H -1.50458e+01 -1.45705e+01  5.23361e+00
       H -1.43714e+01 -1.45807e+01  3.95327e+00
       O -7.60943e+00 -1.04578e+01 -1.30751e+01
       H -7.10335e+00 -1.01802e+01 -1.38980e+01
       H -7.26361e+00 -1.13287e+01 -1.28799e+01
       O -1.64470e+01 -6.99984e+00 -9.09869e+00
       H -1.68090e+01 -6.77778e+00 -8.20446e+00
       H -1.64277e+01 -7.93470e+00 -9.00296e+00
       O -2.14171e+01 -1.94762e+01 -3.29702e+00
       H -2.13667e+01 -1.97547e+01 -2.37785e+00
       H -2.10583e+01 -2.02212e+01 -3.80085e+00
       O -2.13136e+01 -2.91998e+00 -1.73003e+01
       H -2.22915e+01 -2.73225e+00 -1.72181e+01
       H -2.10176e+01 -2.08112e+00 -1.78241e+01
       O -2.78183e+01 -2.76523e+01 -6.26759e+00
       H -2.70842e+01 -2.71502e+01 -5.82006e+00
       H -2.85567e+01 -2.74504e+01 -5.70926e+00
       O -1.19162e+01 -2.22084e+01 -5.56268e+00
       H -1.23593e+01 -2.23771e+01 -6.36987e+00
       H -1.10077e+01 -2.23500e+01 -5.91976e+00
       O -5.35743e+00 -3.12605e+01 -3.07020e+01
       H -4.52236e+00 -3.10505e+01 -3.03015e+01
       H -5.21130e+00 -3.15100e+01 -3.16033e+01
       O -1.29713e+01 -1.84255e+01 -1.26964e+01
       H -1.27730e+01 -1.93856e+01 -1.27877e+01
       H -1.39467e+01 -1.84999e+01 -1.28420e+01
       O -1.40124e+01 -2.37691e+01 -3.41474e+01
       H -1.49470e+01 -2.34577e+01 -3.40772e+01