14
# CELL(abcABC): 1000.00000  1000.00000  1000.00000    90.00000    90.00000    90.00000  Step:         107  Bead:       0 positions{angstrom}  cell{angstrom}
       C -5.92534e-01  6.63836e-01  1.17442e-01
       C  4.45070e-02 -6.31186e-01  7.44934e-01
       C -1.70854e+00  4.28533e-01 -9.56802e-01
       C -8.13070e-01  1.80312e+00  1.10157e+00
       H -1.57875e+00  1.67297e+00  1.85763e+00
       H -1.05026e+00  2.76889e+00  5.85558e-01
       H  1.37184e-01  1.95303e+00  1.65057e+00
       H -1.33172e+00 -2.11881e-01 -1.69540e+00
       H -2.00942e+00  1.35164e+00 -1.40272e+00
       H -2.56818e+00 -1.08285e-01 -5.36196e-01
       H  1.16625e+00 -5.04408e-01  1.04459e+00
       H -2.11085e-02 -1.47827e+00  4.61163e-02
       H -4.94693e-01 -8.76255e-01  1.63088e+00
       H  1.60955e-01  9.29137e-01 -8.85654e-01
