11135
# CELL(abcABC):   47.46614    47.46614    47.46614    90.00000    90.00000    90.00000  Step:        3200  Bead:       0 positions{angstrom}  cell{angstrom}
       C -8.60584e+00 -1.82534e+00 -2.31474e+00
       H -9.20513e+00 -1.46810e+00 -1.52212e+00
       H -8.44834e+00 -2.93134e+00 -2.33404e+00
       H -8.92990e+00 -1.58311e+00 -3.35933e+00
       C -7.26991e+00 -1.21035e+00 -2.07940e+00
       O -6.44999e+00 -1.35039e+00 -2.97071e+00
       N -7.02285e+00 -5.28495e-01 -9.82608e-01
       H -7.68517e+00 -6.09335e-01 -2.62553e-01
       C -5.71850e+00  1.53168e-01 -7.23421e-01
       H -4.95557e+00 -1.01935e-01 -1.53889e+00
       C -6.05447e+00  1.63428e+00 -7.19137e-01
       H -5.19742e+00  2.10937e+00 -2.97868e-01
       H -6.84534e+00  1.88873e+00 -2.11916e-02
       C -6.43054e+00  2.23598e+00 -2.06324e+00
       H -7.31635e+00  1.69356e+00 -2.44109e+00
       H -5.69118e+00  1.88976e+00 -2.72081e+00
       C -6.71524e+00  3.70758e+00 -2.04051e+00
       H -5.79386e+00  4.32348e+00 -2.00132e+00
       H -7.17539e+00  4.18786e+00 -1.14561e+00
       C -7.53022e+00  4.10660e+00 -3.26829e+00
       H -7.64051e+00  5.16598e+00 -3.23036e+00
       H -8.58742e+00  3.70490e+00 -3.27767e+00
       N -7.02653e+00  3.67014e+00 -4.56494e+00
       H -6.02343e+00  3.77324e+00 -4.54541e+00
       H -7.47872e+00  4.26421e+00 -5.60630e+00
       H -7.15093e+00  2.62982e+00 -4.52010e+00
       C -5.19054e+00 -3.13135e-01  6.76675e-01
       O -5.24131e+00  4.36640e-01  1.58144e+00
       N -4.53743e+00 -1.49796e+00  6.96837e-01
       H -4.27635e+00 -1.84934e+00 -2.02437e-01
       H -3.94374e+00 -1.81050e+00  1.42943e+00
       O -1.15406e+01 -1.14772e+01 -2.32373e+01
       H -1.05776e+01 -1.15473e+01 -2.33272e+01
       H -1.19391e+01 -1.23409e+01 -2.35568e+01
       O -2.07818e+01 -3.39663e+00 -7.66481e+00
       H -2.02881e+01 -4.16961e+00 -7.60103e+00
       H -2.00328e+01 -2.73134e+00 -7.72462e+00
       O  1.03100e+01 -1.40160e+01 -2.23238e+00
       H  9.70159e+00 -1.35273e+01 -1.62317e+00
       H  1.10996e+01 -1.41679e+01 -1.72550e+00
       O -2.46385e+01 -1.35253e+01 -2.55505e+01
       H -2.56323e+01 -1.32830e+01 -2.54717e+01
       H -2.42754e+01 -1.27587e+01 -2.60100e+01
       O -1.23731e+01 -1.44517e+01 -2.12715e+01
       H -1.23683e+01 -1.39784e+01 -2.20955e+01
       H -1.18925e+01 -1.37692e+01 -2.07384e+01
       O  2.08869e+01 -2.14888e+01  1.97143e+01
       H  2.12226e+01 -2.16650e+01  1.88189e+01
       H  2.16648e+01 -2.15245e+01  2.03092e+01
       O -1.95909e+01 -1.05786e+01 -8.52196e+00
       H -2.03269e+01 -1.04678e+01 -7.88795e+00
       H -1.89424e+01 -1.08694e+01 -7.93791e+00
       O  1.84970e+01 -2.53075e+01 -1.23723e+01
       H  1.84273e+01 -2.60256e+01 -1.17821e+01
       H  1.88793e+01 -2.57580e+01 -1.31435e+01
       O -1.26640e+01 -1.86117e+01 -5.49243e+00
       H -1.21761e+01 -1.94959e+01 -5.58990e+00
       H -1.22016e+01 -1.81335e+01 -6.24270e+00
       O  1.32922e+01 -1.90852e+01 -8.17430e+00
       H  1.29191e+01 -1.82067e+01 -8.07699e+00
       H  1.29067e+01 -1.95030e+01 -7.42214e+00
       O -3.30070e+01 -1.13121e+01 -3.12825e+00
       H -3.29777e+01 -1.21608e+01 -2.69193e+00
       H -3.21537e+01 -1.12574e+01 -3.54528e+00
       O  1.13359e+01 -2.90321e+01 -1.05461e+01
       H  1.19493e+01 -2.93562e+01 -9.76698e+00
       H  1.05419e+01 -2.95948e+01 -1.05046e+01
       O  1.46375e+01  1.70954e+01 -1.09162e+01
       H  1.40702e+01  1.66513e+01 -1.02128e+01
       H  1.55183e+01  1.69683e+01 -1.05189e+01
       O -3.61097e+01 -1.01498e+01 -8.11009e+00
       H -3.52516e+01 -1.06374e+01 -8.30032e+00
       H -3.60790e+01 -1.00485e+01 -7.13487e+00
       O -4.69106e+00 -2.19047e+01 -2.52659e+01
       H -5.36147e+00 -2.14754e+01 -2.46277e+01
       H -4.65945e+00 -2.11437e+01 -2.58894e+01
       O -3.21586e+00 -8.21911e+00 -8.10612e+00
       H -2.80360e+00 -7.44821e+00 -8.55650e+00
       H -3.84735e+00 -8.42232e+00 -8.82196e+00
       O -8.31714e+00 -1.31463e+01  1.77699e+00
       H -9.07765e+00 -1.26542e+01  1.39958e+00
       H -8.61852e+00 -1.39931e+01  1.37065e+00
       O -8.50665e-01 -1.75501e+01 -2.60648e+01
       H -3.66758e-01 -1.84054e+01 -2.59976e+01
       H -1.10824e-01 -1.69381e+01 -2.60809e+01
       O -8.95540e-01 -1.66563e+01 -1.26476e+01
       H -1.04107e+00 -1.67018e+01 -1.17177e+01
       H -1.22959e+00 -1.75710e+01 -1.28102e+01
       O -1.43811e+01  1.92263e+01  3.11382e+00
       H -1.44393e+01  1.86511e+01  3.90058e+00
       H -1.45909e+01  1.86656e+01  2.33882e+00
       O -2.54758e+01 -2.92185e+00 -9.38473e+00
       H -2.51432e+01 -2.55203e+00 -1.02187e+01
       H -2.45909e+01 -3.12208e+00 -9.02877e+00
       O -2.29307e+01 -1.35641e+01 -7.06952e+00
       H -2.26613e+01 -1.33694e+01 -6.19218e+00
       H -2.27803e+01 -1.27072e+01 -7.51714e+00
       O  2.06224e+01 -1.64250e+01 -2.10927e+01
       H  2.03424e+01 -1.68800e+01 -2.03509e+01
       H  2.11869e+01 -1.71297e+01 -2.13509e+01
       O -1.71093e+01 -1.57903e+01 -1.60185e+01
       H -1.80619e+01 -1.55135e+01 -1.61078e+01
       H -1.66391e+01 -1.51031e+01 -1.64959e+01
       O -4.18903e+00 -2.25967e+01 -1.53992e+01
       H -4.23673e+00 -2.34288e+01 -1.58160e+01
       H -4.12128e+00 -2.19807e+01 -1.61395e+01
       O -1.78080e+01 -2.16229e+01  2.24258e+01
       H -1.83780e+01 -2.13914e+01  2.31701e+01
       H -1.83038e+01 -2.23740e+01  2.19709e+01
       O -7.30262e+00 -3.51186e+01 -1.95881e+01
       H -6.74942e+00 -3.43185e+01 -1.99202e+01
       H -8.13442e+00 -3.46774e+01 -1.94269e+01
       O -4.69265e+00 -3.88128e+00  1.90853e+01
       H -5.00896e+00 -4.81494e+00  1.88941e+01
       H -5.35846e+00 -3.69111e+00  1.97418e+01
       O -1.56871e+01  3.46320e-01  7.83104e-01
       H -1.62328e+01 -4.45125e-01  9.66535e-01
       H -1.50447e+01  4.39543e-01  1.49314e+00
       O -2.71936e+01 -1.24941e+01  2.15574e+01
       H -2.70983e+01 -1.16174e+01  2.11294e+01
       H -2.75204e+01 -1.30515e+01  2.08355e+01
       O -1.84518e+01 -1.48309e+01 -2.40534e+01
       H -1.85406e+01 -1.55894e+01 -2.35438e+01
       H -1.88077e+01 -1.40274e+01 -2.35957e+01
       O  6.34691e+00 -9.08174e+00 -2.10453e+01
       H  7.17766e+00 -9.37399e+00 -2.05281e+01
       H  6.28575e+00 -9.79304e+00 -2.17491e+01
       O  3.83259e+00 -7.10530e+00 -3.12769e+01
       H  3.12224e+00 -7.36212e+00 -3.07723e+01
       H  3.35603e+00 -6.91427e+00 -3.21067e+01
       O -1.03464e+01 -1.51731e+01  7.65907e+00
       H -1.00992e+01 -1.55775e+01  6.80528e+00
       H -9.47985e+00 -1.49453e+01  7.89360e+00
       O -1.65480e+01 -1.54068e+01 -1.31836e+01
       H -1.67115e+01 -1.54877e+01 -1.41371e+01
       H -1.70430e+01 -1.61084e+01 -1.27868e+01
       O -2.54833e+01 -2.16454e+01  1.72278e+01
       H -2.47508e+01 -2.18614e+01  1.65381e+01
       H -2.49311e+01 -2.11339e+01  1.78682e+01
       O -1.57499e+01 -2.35367e+01 -5.99098e+00
       H -1.56443e+01 -2.33390e+01 -6.93748e+00
       H -1.61572e+01 -2.27518e+01 -5.76375e+00
       O -6.86197e+00 -7.14736e+00 -3.55497e+01
       H -7.36591e+00 -7.73048e+00 -3.61566e+01
       H -6.46701e+00 -7.82501e+00 -3.49741e+01
       O -1.19306e+01  6.63654e+00 -1.16850e+01
       H -1.18838e+01  7.61350e+00 -1.17092e+01
       H -1.28710e+01  6.62163e+00 -1.12605e+01
       O -5.24743e+00 -3.29398e+01 -1.71400e+01
       H -5.65266e+00 -3.29729e+01 -1.80332e+01
       H -6.02863e+00 -3.31243e+01 -1.65329e+01
       O  1.75411e+01 -1.85614e+01 -1.39365e+01
       H  1.68241e+01 -1.81334e+01 -1.44478e+01
       H  1.71140e+01 -1.91745e+01 -1.33388e+01
       O -1.34175e+01 -5.80474e+00 -3.78783e+01
       H -1.42172e+01 -5.72410e+00  9.05138e+00
       H -1.27289e+01 -5.26905e+00 -3.83345e+01
       O  1.97010e+01 -2.52540e+01 -8.31078e+00
       H  1.93622e+01 -2.61607e+01 -8.56870e+00
       H  1.98863e+01 -2.49016e+01 -9.15675e+00
       O -2.09858e+01 -1.17544e+01 -1.62851e+01
       H -2.19324e+01 -1.18420e+01 -1.62179e+01
       H -2.07622e+01 -1.24027e+01 -1.69223e+01
       O -2.28049e+01 -1.84448e+01 -1.70904e+01
       H -2.20940e+01 -1.89933e+01 -1.66680e+01
       H -2.22691e+01 -1.81919e+01 -1.79172e+01
       O  7.21684e-01 -1.34171e+01  1.02406e+01
       H  8.05187e-01 -1.30890e+01  1.11405e+01
       H -1.71051e-01 -1.32173e+01  9.90223e+00
       O -1.71245e+01 -1.74640e+01  2.31495e-01
       H -1.69871e+01 -1.72933e+01 -7.36145e-01
       H -1.78253e+01 -1.68746e+01  4.31352e-01
       O  1.82680e+00 -1.47454e+01 -1.33287e+01
       H  2.22298e+00 -1.48869e+01 -1.24413e+01
       H  8.80726e-01 -1.46300e+01 -1.31879e+01
       O  6.68574e+00 -6.64372e+00 -1.74152e+01
       H  6.61310e+00 -5.67152e+00 -1.76006e+01
       H  5.95641e+00 -6.66732e+00 -1.67414e+01
       O -2.14325e+01 -2.05551e+00 -2.14073e+01
       H -2.07651e+01 -2.37806e+00 -2.20359e+01
       H -2.22861e+01 -2.44337e+00 -2.16383e+01
       O -1.64830e+01 -1.19773e+01 -2.90179e+01
       H -1.68048e+01 -1.18364e+01 -2.99092e+01
       H -1.69648e+01 -1.27450e+01 -2.87317e+01
       O -1.24497e+01 -1.39452e+01 -2.42411e+01
       H -1.24108e+01 -1.42160e+01 -2.52145e+01
       H -1.16121e+01 -1.42846e+01 -2.39081e+01
       O -8.81980e+00 -1.39450e+01 -2.73026e+01
       H -9.45220e+00 -1.32971e+01 -2.71185e+01
       H -9.40265e+00 -1.47424e+01 -2.72510e+01
       O -1.36603e+01 -4.79818e-01 -8.88587e+00
       H -1.32055e+01 -5.77657e-01 -8.02416e+00
       H -1.31041e+01 -1.09371e+00 -9.45239e+00
       O  6.36335e+00 -6.11932e+00 -2.12742e+01
       H  6.61698e+00 -7.03730e+00 -2.11731e+01
       H  6.71902e+00 -5.95622e+00 -2.21600e+01
       O -1.80646e+01 -8.83629e+00  1.53356e+00
       H -1.72694e+01 -8.88854e+00  1.03982e+00
       H -1.86628e+01 -9.42513e+00  1.07446e+00
       O -1.61286e+01 -6.99153e+00 -8.55992e-01
       H -1.68558e+01 -6.52921e+00 -3.75225e-01
       H -1.64511e+01 -7.85682e+00 -1.31421e+00
       O -2.91708e+00 -1.45695e+01 -2.58966e+01
       H -3.10920e+00 -1.50726e+01 -2.50821e+01
       H -2.60709e+00 -1.53670e+01 -2.64385e+01
       O -1.18344e-01 -1.88208e+01 -1.61759e+01
       H -9.24585e-01 -1.93693e+01 -1.63735e+01
       H  3.61342e-02 -1.89532e+01 -1.51873e+01
       O -1.76084e+00  2.62612e+01  6.18002e+00
       H -1.01410e+00  2.63415e+01  6.79456e+00
       H -1.33083e+00  2.64557e+01  5.29586e+00
       O -9.85977e+00 -9.53803e+00 -3.03522e+01
       H -1.02468e+01 -8.73219e+00 -3.06116e+01
       H -9.03211e+00 -9.34495e+00 -2.99228e+01
       O -5.68968e+00  2.38678e+01  9.54244e+00
       H -5.25766e+00  2.40734e+01  8.68273e+00
       H -6.52710e+00  2.43784e+01  9.50280e+00
       O -9.88948e+00 -1.00318e+01 -9.32777e+00
       H -9.35920e+00 -1.04632e+01 -1.00591e+01
       H -9.78622e+00 -1.08134e+01 -8.76870e+00
       O  8.52488e+00 -1.64071e+01 -3.83319e+00
       H  7.58000e+00 -1.67071e+01 -3.78682e+00
       H  8.42769e+00 -1.55305e+01 -4.19843e+00
       O -1.16846e+01 -6.20906e+00  4.81458e+00
       H -1.09019e+01 -6.82879e+00  4.80274e+00
       H -1.16517e+01 -5.86472e+00  5.70716e+00
       O -1.40400e+01 -3.32998e+00  1.44005e+01
       H -1.38843e+01 -3.93029e+00  1.36813e+01
       H -1.38743e+01 -2.43830e+00  1.40586e+01
       O -2.73847e+01 -1.36506e+01 -9.22297e+00
       H -2.76297e+01 -1.43999e+01 -9.81684e+00
       H -2.64870e+01 -1.40062e+01 -8.94726e+00
       O  1.96330e+00 -1.10275e+01 -1.11674e+01
       H  1.65432e+00 -1.08651e+01 -1.02093e+01
       H  2.65809e+00 -1.16646e+01 -1.12443e+01
       O -1.74927e+01 -2.51666e+01 -1.32641e+01
       H -1.76592e+01 -2.49366e+01 -1.41894e+01
       H -1.67274e+01 -2.45869e+01 -1.30225e+01
       O -3.79897e+01 -2.59345e+01  2.78425e+01
       H -3.72027e+01 -2.61384e+01  2.83453e+01
       H -3.83683e+01 -2.66903e+01  2.81095e+01
       O  1.88715e+01  2.28902e+01  2.82005e+01
       H  1.98269e+01  2.27004e+01  2.83417e+01
       H  1.88700e+01  2.33218e+01  2.73089e+01
       O -6.76013e+00 -1.24762e+01 -1.35215e+01
       H -7.60282e+00 -1.27485e+01 -1.31887e+01
       H -6.66358e+00 -1.30560e+01 -1.42487e+01
       O -1.26898e+01 -1.00254e+01 -9.08771e+00
       H -1.29822e+01 -1.00059e+01 -9.99425e+00
       H -1.17210e+01 -1.00707e+01 -9.16309e+00
       O -1.88094e+01 -1.07168e+00  5.15663e+00
       H -1.96545e+01 -5.01384e-01  5.30100e+00
       H -1.91311e+01 -1.80101e+00  5.77694e+00
       O -1.12620e+01 -1.67689e+01 -2.49682e+01
       H -1.06313e+01 -1.67965e+01 -2.42648e+01
       H -1.18159e+01 -1.74752e+01 -2.45644e+01
       O -2.17744e+01 -1.70432e+01 -2.16065e+01
       H -2.19336e+01 -1.61836e+01 -2.20380e+01
       H -2.07781e+01 -1.70402e+01 -2.14473e+01
       O -5.36661e+00 -9.84984e+00 -1.66681e+01
       H -4.42908e+00 -9.94600e+00 -1.67470e+01
       H -5.57900e+00 -9.07239e+00 -1.71760e+01
       O -1.56098e+01 -1.44391e+01 -2.11134e+01
       H -1.57949e+01 -1.35688e+01 -2.09454e+01
       H -1.51478e+01 -1.44053e+01 -2.19953e+01
       O -1.01106e+01 -2.46563e+01 -1.64034e+01
       H -1.01697e+01 -2.51424e+01 -1.72709e+01
       H -1.07454e+01 -2.39114e+01 -1.64601e+01
       O -1.89044e+01 -1.09607e+01 -5.65840e+00
       H -1.94518e+01 -1.15760e+01 -5.16183e+00
       H -1.79957e+01 -1.13330e+01 -5.52373e+00
       O -1.05760e+01 -1.71136e+01 -1.02481e+01
       H -1.03019e+01 -1.79140e+01 -1.06707e+01
       H -1.10223e+01 -1.67184e+01 -1.09999e+01
       O  2.16380e+01 -1.34270e+01 -1.32101e+01
       H  2.16528e+01 -1.44443e+01 -1.32091e+01
       H  2.16470e+01 -1.31352e+01 -1.22625e+01
       O -1.02719e+01 -2.49137e+01 -9.19532e-01
       H -9.30367e+00 -2.49589e+01 -1.05806e+00
       H -1.05856e+01 -2.54834e+01 -1.67585e+00
       O -1.74344e+01 -2.51966e+01  6.34666e+00
       H -1.81065e+01 -2.46498e+01  6.76870e+00
       H -1.67393e+01 -2.45382e+01  6.18963e+00
       O -1.80019e+01 -8.42604e+00 -5.37794e+00
       H -1.84044e+01 -9.33885e+00 -5.48097e+00
       H -1.88469e+01 -7.94193e+00 -5.58545e+00
       O -1.09601e+01  2.30457e+00 -1.50773e+01
       H -1.13685e+01  1.76829e+00 -1.57613e+01
       H -1.14838e+01  2.10147e+00 -1.42567e+01
       O  3.09432e+01 -1.33472e+01  5.76147e+00
       H  3.04700e+01 -1.25884e+01  5.47278e+00
       H  3.17410e+01 -1.33120e+01  5.17882e+00
       O  1.70189e+01 -1.78645e+01 -2.65526e+01
       H  1.75433e+01 -1.86523e+01 -2.66963e+01
       H  1.65171e+01 -1.76337e+01 -2.73243e+01
       O  3.98950e+00 -2.89658e+01 -5.44168e-01
       H  4.08949e+00 -2.89605e+01  4.45720e-01
       H  3.03857e+00 -2.87571e+01 -6.72314e-01
       O -2.48612e+01 -1.80039e+01 -2.40336e+01
       H -2.44923e+01 -1.78116e+01 -2.31755e+01
       H -2.54485e+01 -1.87384e+01 -2.39076e+01
       O  1.97313e+00 -1.56749e+01 -1.06684e+01
       H  1.02959e+00 -1.55287e+01 -1.06766e+01
       H  2.09395e+00 -1.60006e+01 -9.78388e+00
       O  5.18122e-01 -8.49502e+00 -8.60215e+00
       H  2.03829e-01 -9.41491e+00 -8.84098e+00
       H  1.49614e+00 -8.66915e+00 -8.45098e+00
       O -7.62671e+00 -3.79719e+00 -9.16293e+00
       H -8.54451e+00 -3.73309e+00 -9.41882e+00
       H -7.79445e+00 -4.37446e+00 -8.37028e+00
       O -1.43203e+01  1.26689e+01 -1.23689e+01
       H -1.52434e+01  1.29168e+01 -1.24216e+01
       H -1.40391e+01  1.29291e+01 -1.14773e+01
       O  2.97596e-01 -9.24417e+00 -2.83678e+01
       H  1.11726e+00 -8.72234e+00 -2.85951e+01
       H  5.27607e-01 -9.77440e+00 -2.76161e+01
       O -2.29721e+01 -1.43645e+01  2.45215e+01
       H -2.29462e+01 -1.38102e+01  2.37663e+01
       H -2.36917e+01 -1.39829e+01  2.50305e+01
       O  2.16516e+01 -1.41643e+01  4.21662e+01
       H  2.09125e+01 -1.40394e+01  4.15378e+01
       H  2.16677e+01 -1.51137e+01  4.21306e+01
       O -1.27636e+01 -9.12190e+00 -1.91448e+01
       H -1.35116e+01 -9.16074e+00 -1.97650e+01
       H -1.32857e+01 -9.13393e+00 -1.82848e+01
       O -1.51660e+01 -1.43994e+01 -1.81337e+01
       H -1.44103e+01 -1.49629e+01 -1.81549e+01
       H -1.53870e+01 -1.44948e+01 -1.90816e+01
       O -2.19802e+01 -1.05216e+01  2.65774e+01
       H -2.27956e+01 -1.03373e+01  2.70863e+01
       H -2.17919e+01 -1.14402e+01  2.68182e+01
       O -8.96770e+00 -1.34233e+01 -2.04460e+01
       H -9.30358e+00 -1.25972e+01 -2.07664e+01
       H -8.69473e+00 -1.31677e+01 -1.95750e+01
       O -5.39254e+00 -1.64793e+01 -1.85985e+01
       H -5.77296e+00 -1.60793e+01 -1.77833e+01
       H -5.72094e+00 -1.73878e+01 -1.86446e+01
       O -1.08753e+01  2.27348e+01 -9.47193e+00
       H -1.10582e+01  2.33606e+01 -1.02953e+01
       H -1.01485e+01  2.21568e+01 -9.81496e+00
       O -1.10062e+01  1.68993e+00 -1.04623e+01
       H -1.04328e+01  9.94637e-01 -1.03687e+01
       H -1.07670e+01  2.19218e+00 -9.67390e+00
       O -9.41624e+00 -8.09445e+00  2.11244e-01
       H -1.00778e+01 -8.12223e+00 -4.88818e-01
       H -8.57772e+00 -8.13322e+00 -2.18889e-01
       O -3.44832e+00 -1.77680e+01 -3.25041e+01
       H -3.59479e+00 -1.78525e+01 -3.34894e+01
       H -2.59491e+00 -1.82650e+01 -3.25360e+01
       O  1.38294e+01 -3.55084e+00 -1.14972e+01
       H  1.46453e+01 -3.98747e+00 -1.15875e+01
       H  1.38379e+01 -3.65917e+00 -1.05083e+01
       O -1.53430e+01 -9.87002e+00  1.99145e+01
       H -1.61314e+01 -9.57875e+00  2.03629e+01
       H -1.57987e+01 -1.06647e+01  1.94578e+01
       O  2.55521e+01 -1.85448e+01  1.58611e+01
       H  2.49007e+01 -1.83498e+01  1.52386e+01
       H  2.62240e+01 -1.77963e+01  1.56004e+01
       O -2.60077e+01 -8.76726e+00  1.74448e+01
       H -2.60855e+01 -7.74833e+00  1.71525e+01
       H -2.50399e+01 -8.85722e+00  1.74661e+01
       O -1.77710e+01  2.82065e+01 -1.36447e+01
       H -1.82610e+01  2.90513e+01 -1.34713e+01
       H -1.75519e+01  2.78717e+01 -1.27427e+01
       O -1.77421e+01 -8.38784e+00  1.45979e+01
       H -1.74773e+01 -8.75692e+00  1.36926e+01
       H -1.75273e+01 -7.45901e+00  1.44682e+01
       O  2.42606e+01 -2.58206e+01  1.26605e+01
       H  2.50953e+01 -2.62188e+01  1.24216e+01
       H  2.42280e+01 -2.50703e+01  1.20803e+01
       O  1.02731e+01 -2.62274e+01 -1.22315e+01
       H  1.03456e+01 -2.61049e+01 -1.32103e+01
       H  9.50717e+00 -2.67572e+01 -1.21290e+01
       O -8.19591e+00 -1.80477e+01 -4.11770e+00
       H -7.92833e+00 -1.76635e+01 -3.22407e+00
       H -8.09709e+00 -1.90109e+01 -4.00834e+00
       O  1.16802e+01 -2.02283e+01 -6.23951e+00
       H  1.16079e+01 -2.11070e+01 -6.70850e+00
       H  1.08243e+01 -1.98786e+01 -6.52230e+00
       O -1.02720e+01  1.62628e+01 -2.27837e+01
       H -9.51543e+00  1.65332e+01  2.52595e+01
       H -1.09599e+01  1.59076e+01  2.53204e+01
       O  1.70031e+01 -1.97810e+01  1.82237e+01
       H  1.79371e+01 -1.96209e+01 -2.94323e+01
       H  1.65624e+01 -1.88861e+01 -2.92966e+01
       O  3.85613e+00  1.42583e+01  4.55566e+00
       H  3.36344e+00  1.49587e+01  4.14254e+00
       H  4.71000e+00  1.47532e+01  4.57571e+00
       O -1.18093e+01  2.65793e+01  1.51241e+01
       H -1.16088e+01  2.61782e+01  1.42488e+01
       H -1.16719e+01  2.58172e+01  1.57424e+01
       O  2.12393e+01 -5.44730e+00  4.16880e+01
       H  2.08441e+01 -5.85162e+00  4.24873e+01
       H  2.17513e+01 -6.16548e+00  4.13085e+01
       O  1.33372e+01 -1.81521e+01 -1.63360e+01
       H  1.25738e+01 -1.79951e+01 -1.69550e+01
       H  1.28662e+01 -1.85906e+01 -1.56018e+01
       O -1.26407e+00 -1.61215e+01 -1.89958e+01
       H -6.60923e-01 -1.53966e+01 -1.93124e+01
       H -7.18980e-01 -1.68815e+01 -1.88247e+01
       O -1.12877e+01 -2.08293e+01 -5.68889e+00
       H -1.19186e+01  2.59648e+01 -5.46995e+00
       H -1.04911e+01 -2.11923e+01 -5.28347e+00
       O  3.48216e+01  3.44504e-03  2.60271e+01
       H  3.44446e+01 -7.99514e-01  2.56449e+01
       H  3.46962e+01 -2.64039e-01  2.69824e+01
       O -2.51807e+01  7.76105e+00 -5.16013e+00
       H -2.54183e+01  8.68504e+00 -5.16170e+00
       H -2.47701e+01  7.62676e+00 -4.34721e+00
       O  2.02174e+01 -5.41092e+00 -1.28341e+01
       H  2.03406e+01 -4.43440e+00 -1.30582e+01
       H  2.11318e+01 -5.56851e+00 -1.27095e+01
       O -8.69731e+00 -1.93502e+01  2.50283e+01
       H -9.42834e+00 -1.86957e+01  2.50042e+01
       H -8.24999e+00 -1.91187e+01  2.58512e+01
       O -1.34959e+01 -7.40277e+00 -3.24176e+00
       H -1.40428e+01 -7.63648e+00 -2.51841e+00
       H -1.38749e+01 -7.84660e+00 -3.99871e+00
       O  2.81663e+00 -2.11941e+01 -1.19178e+01
       H  3.41539e+00 -2.08393e+01 -1.12339e+01
       H  2.05416e+00 -2.06093e+01 -1.18769e+01
       O -1.92094e+01 -9.11531e+00 -1.07610e+01
       H -1.93687e+01 -9.82500e+00 -1.14454e+01
       H -1.93349e+01 -9.66591e+00 -9.91086e+00
       O -2.01923e+01 -2.58717e+01  1.87026e+01
       H -2.01206e+01 -2.52292e+01  1.80005e+01
       H -1.92199e+01 -2.59766e+01  1.89171e+01
       O  4.98274e+00 -3.38151e+01  1.39312e+00
       H  4.54406e+00 -3.29932e+01  9.58130e-01
       H  5.36573e+00 -3.33815e+01  2.13444e+00
       O -7.97746e+00 -1.73578e+01  1.86446e+01
       H -8.72011e+00 -1.67825e+01  1.89270e+01
       H -7.38039e+00 -1.66605e+01  1.83668e+01
       O  2.06030e+00 -5.21116e-01 -8.13483e+00
       H  1.51513e+00 -3.23141e-01 -8.88419e+00
       H  2.56377e+00  3.80750e-01 -8.07460e+00
       O -1.45347e+01 -9.54298e+00 -1.68919e+01
       H -1.47657e+01 -1.04044e+01 -1.72733e+01
       H -1.53936e+01 -9.17666e+00 -1.65777e+01
       O  1.84640e+01 -2.43750e+01 -1.65100e+01
       H  1.87617e+01 -2.44302e+01 -1.74359e+01
       H  1.92492e+01 -2.44967e+01 -1.59387e+01
       O -1.18272e+01 -2.04144e+01 -8.65611e+00
       H -1.12824e+01 -2.03259e+01 -7.86129e+00
       H -1.13940e+01 -2.11053e+01 -9.02467e+00
       O -1.44058e+01 -1.37910e+01 -1.31407e+01
       H -1.49855e+01 -1.45172e+01 -1.33442e+01
       H -1.49955e+01 -1.31369e+01 -1.29726e+01
       O  4.21087e+00 -2.44403e+01 -2.79454e+01
       H  3.81113e+00 -2.37041e+01 -2.74387e+01
       H  4.77344e+00 -2.49398e+01 -2.72596e+01
       O  1.40767e+01 -2.85981e+01 -1.67657e+01
       H  1.44267e+01 -2.84408e+01 -1.76286e+01
       H  1.46670e+01 -2.92265e+01 -1.63125e+01
       O  1.61556e+01  2.16657e+01  1.14806e+01
       H  1.63431e+01  2.24699e+01  1.20266e+01
       H  1.70449e+01  2.14354e+01  1.11639e+01
       O -1.03195e+01 -4.52499e+00 -9.82114e+00
       H -9.94032e+00 -5.22299e+00 -1.03266e+01
       H -1.12349e+01 -4.83318e+00 -9.58343e+00
       O -5.18711e-01 -3.47178e+01 -1.51403e+00
       H -7.76517e-01  1.20155e+01 -2.07201e+00
       H  4.27393e-01 -3.46044e+01 -1.84002e+00
       O -5.94832e+00 -9.28485e+00 -2.22497e+01
       H -6.22903e+00 -8.61499e+00 -2.16280e+01
       H -5.79650e+00 -8.76306e+00 -2.30825e+01
       O -2.05137e+01 -4.05710e+01  1.04331e+01
       H -2.13070e+01 -4.06312e+01  9.85767e+00
       H -2.07000e+01 -4.11896e+01  1.11236e+01
       O  4.84986e-01  8.67885e+00 -3.67556e+00
       H  9.88616e-01  8.03008e+00 -3.10318e+00
       H  3.01871e-01  8.20164e+00 -4.53269e+00
       O -2.32142e+01 -5.33661e+00 -4.06538e+00
       H -2.22684e+01 -5.18585e+00 -4.06766e+00
       H -2.34984e+01 -4.52565e+00 -4.49402e+00
       O  2.82317e+01 -1.80026e+01  1.50985e+01
       H  2.91044e+01 -1.84854e+01  1.52638e+01
       H  2.85130e+01 -1.72390e+01  1.45604e+01
       O -1.06406e+01 -1.86908e+01 -1.34739e+00
       H -1.09248e+01 -1.95922e+01 -1.69655e+00
       H -1.10124e+01 -1.80934e+01 -2.04938e+00
       O  1.18110e+01 -1.69580e+01 -7.69831e+00
       H  1.20523e+01 -1.62072e+01 -7.17937e+00
       H  1.10065e+01  3.03273e+01 -7.11851e+00
       O -1.32450e+01  2.24205e+01  6.05957e+00
       H -1.35154e+01  2.16956e+01  6.64697e+00
       H -1.25757e+01  2.19566e+01  5.60118e+00
       O -2.34771e+00 -9.67424e+00 -2.78382e+01
       H -1.94111e+00 -9.19090e+00 -2.71504e+01
       H -1.57504e+00 -9.76643e+00 -2.83608e+01
       O  2.50831e+01 -1.29176e+01  2.81827e+01
       H  2.51917e+01 -1.38313e+01  2.84394e+01
       H  2.41995e+01 -1.27555e+01  2.84287e+01
       O  1.07388e+01  1.49905e+00 -5.88614e-01
       H  1.05080e+01  8.88213e-01  1.14699e-01
       H  9.83524e+00  1.63291e+00 -9.57471e-01
       O  1.16375e+01 -1.17763e+01 -2.71006e+01
       H  1.13845e+01 -1.10231e+01 -2.77400e+01
       H  1.16332e+01 -1.14040e+01 -2.61777e+01
       O -1.09841e+01  2.20520e+01 -5.78175e+00
       H -1.17536e+01  2.21865e+01 -6.38200e+00
       H -1.02999e+01  2.16659e+01 -6.38164e+00
       O -6.35818e+00 -1.48284e+01 -2.60550e+01
       H -6.14533e+00 -1.38711e+01 -2.59220e+01
       H -7.03428e+00 -1.47564e+01 -2.67520e+01
       O  1.64524e+00 -1.12040e+00 -1.58502e+01
       H  7.68024e-01 -1.51728e+00 -1.56274e+01
       H  1.63581e+00 -1.12480e+00 -1.67970e+01
       O -3.10307e+00 -7.66649e+00  1.24738e+01
       H -3.05421e+00 -8.41589e+00  1.31542e+01
       H -2.21319e+00 -7.63186e+00  1.21645e+01
       O -9.38828e+00 -2.14997e+01 -2.57048e+01
       H -8.56280e+00 -2.19936e+01 -2.59667e+01
       H -9.22086e+00 -2.06794e+01 -2.62208e+01
       O  1.01697e+01 -1.24060e+00 -3.05881e+01
       H  9.96155e+00 -4.95810e-01 -3.11865e+01
       H  9.32633e+00 -1.41019e+00 -3.02044e+01
       O -9.07747e+00 -1.22445e+01  2.31858e+01
       H -9.06076e+00 -1.32054e+01  2.32965e+01
       H -8.33760e+00 -1.19447e+01  2.37119e+01
       O -8.93680e+00 -1.91351e+01 -7.35595e+00
       H -8.68724e+00 -1.85631e+01 -8.10082e+00
       H -8.83086e+00 -2.00234e+01 -7.70768e+00
       O -1.74124e+01 -1.02968e+01  2.43301e+01
       H -1.72123e+01 -1.08788e+01  2.35653e+01
       H -1.83558e+01 -1.02813e+01  2.42572e+01
       O  1.11713e+01 -1.03143e+01 -1.48186e+01
       H  1.20481e+01 -1.07123e+01 -1.50978e+01
       H  1.10690e+01 -9.74846e+00 -1.55608e+01
       O -8.19921e+00  8.01075e+00 -1.11369e+01
       H -8.89499e+00  8.51716e+00 -1.06297e+01
       H -8.40508e+00  7.14141e+00 -1.07383e+01
       O -4.65550e+00 -2.90030e+00 -3.11980e+01
       H -4.77463e+00 -3.07105e+00 -3.02228e+01
       H -5.11579e+00 -3.76137e+00 -3.15382e+01
       O -2.09837e+00 -1.32835e+01 -1.00966e+01
       H -1.68393e+00 -1.23743e+01 -1.00689e+01
       H -1.96931e+00 -1.34244e+01 -1.10415e+01
       O -4.45123e+00 -9.63060e+00 -2.97568e+01
       H -3.94356e+00 -1.02862e+01 -3.03660e+01
       H -3.66333e+00 -9.50332e+00 -2.91975e+01
       O -2.78306e+00 -5.14329e+00 -1.84531e+01
       H -3.11718e+00 -5.30773e+00 -1.75685e+01
       H -1.89857e+00 -4.79507e+00 -1.82282e+01
       O -4.92590e+00  2.54294e+01 -1.27453e+01
       H -5.29105e+00  2.63358e+01 -1.29269e+01
       H -4.55783e+00  2.50445e+01 -1.36182e+01
       O -5.85665e+00 -1.94565e+01 -8.20560e+00
       H -6.59006e+00 -2.00646e+01 -8.38335e+00
       H -5.08550e+00 -2.00477e+01 -8.31160e+00
       O -1.21659e+00  8.49656e+00 -6.11630e+00
       H -1.74410e+00  8.39826e+00 -5.33661e+00
       H -1.56092e+00  7.75904e+00 -6.62427e+00
       O -4.50127e+00 -1.98647e+01 -2.74087e+01
       H -4.92995e+00 -2.00475e+01 -2.82609e+01
       H -4.98812e+00 -1.90356e+01 -2.72327e+01
       O -2.73306e+01 -1.38208e+01 -1.77155e+01
       H -2.78947e+01 -1.31122e+01 -1.72504e+01
       H -2.80968e+01 -1.41483e+01 -1.82624e+01
       O -2.07893e+01 -1.82220e+01 -1.87438e+01
       H -2.02863e+01 -1.75468e+01 -1.93343e+01
       H -2.01068e+01 -1.88024e+01 -1.82902e+01
       O  9.87618e+00  2.39815e+01 -1.14836e+01
       H  9.20114e+00  2.43206e+01 -1.21145e+01
       H  1.02548e+01  2.32354e+01 -1.19710e+01
       O -1.24774e+01  1.83008e+01 -1.45862e+01
       H -1.18542e+01  1.75565e+01 -1.42665e+01
       H -1.26218e+01  1.80548e+01 -1.55263e+01
       O  1.96909e+01 -2.68025e+01  1.21752e+01
       H  1.92823e+01 -2.64718e+01  1.13671e+01
       H  2.03312e+01 -2.74163e+01  1.17652e+01
       O -2.85611e+00 -6.60201e+00 -2.81419e+01
       H -2.77683e+00 -6.32607e+00 -2.71730e+01
       H -3.79941e+00 -6.70999e+00 -2.84233e+01
       O  1.42752e+01  3.02127e+01 -4.05489e+00
       H  1.45212e+01  3.10857e+01 -4.49106e+00
       H  1.49305e+01  3.02852e+01 -3.29318e+00
       O -2.23636e+01 -1.11353e+01 -7.96121e+00
       H -2.22945e+01 -1.03712e+01 -7.35780e+00
       H -2.27355e+01 -1.06975e+01 -8.74414e+00
       O -2.47219e+01  1.81759e+00 -9.98233e+00
       H -2.48075e+01  1.64632e+00 -1.09061e+01
       H -2.55609e+01  1.41852e+00 -9.62971e+00
       O -9.07648e+00 -8.06065e+00 -1.38868e+01
       H -8.42385e+00 -7.48375e+00 -1.34353e+01
       H -8.68046e+00 -8.93658e+00 -1.36394e+01
       O -9.11318e+00  1.02298e+01  1.93303e+01
       H -9.43630e+00  9.60967e+00  2.00020e+01
       H -9.96646e+00  1.05951e+01  1.90178e+01
       O  2.02512e+00  2.22237e+01 -4.60493e+00
       H  2.01379e+00 -2.59132e+01 -3.91136e+00
       H  2.67016e+00  2.18019e+01 -5.22037e+00
       O -2.16141e+01 -1.81501e+01 -7.04515e+00
       H -2.06733e+01 -1.83930e+01 -7.27597e+00
       H -2.19639e+01 -1.89421e+01 -6.64467e+00
       O -1.80258e+01  2.08804e+01 -9.71599e+00
       H -1.78277e+01  2.17947e+01 -9.70213e+00
       H -1.74170e+01  2.05833e+01 -1.04107e+01
       O -1.23232e+01 -1.38487e+01 -8.87870e+00
       H -1.13462e+01 -1.40891e+01 -8.90968e+00
       H -1.23555e+01 -1.34100e+01 -9.75086e+00
       O -7.87861e-01 -2.68628e+00 -1.56189e+01
       H -1.65662e+00 -2.39395e+00 -1.59176e+01
       H -4.89559e-01 -3.20225e+00 -1.63699e+01
       O -7.56581e+00 -1.21256e+01 -3.02050e+01
       H -7.12274e+00 -1.13072e+01 -3.03175e+01
       H -7.23524e+00 -1.27654e+01 -3.09330e+01
       O -3.24762e+00 -2.59144e+01 -1.47081e+01
       H -2.62758e+00 -2.52413e+01 -1.44964e+01
       H -3.51535e+00 -2.54780e+01 -1.55602e+01
       O  1.92414e+01 -1.37387e+01 -6.55761e+00
       H  1.91447e+01 -1.46378e+01 -6.94645e+00
       H  1.93083e+01 -1.31504e+01 -7.28438e+00
       O -1.18607e+01 -1.19117e+01 -2.04009e+01
       H -1.14885e+01 -1.17229e+01 -1.94729e+01
       H -1.20581e+01 -1.10427e+01 -2.07945e+01
       O -2.82302e+01 -1.06784e+01 -2.04181e+01
       H -2.74226e+01 -1.08616e+01 -2.09242e+01
       H -2.81921e+01 -1.10769e+01 -1.95418e+01
       O  2.41308e+00 -9.55917e+00  1.15286e+00
       H  2.46406e+00 -9.69099e+00  2.15960e+00