11115
# CELL(abcABC):   47.66706    47.66706    47.66706    90.00000    90.00000    90.00000  Step:       10000  Bead:       0 positions{angstrom}  cell{angstrom}
       C -9.28905e-03 -2.00470e+00  6.53220e+00
       H -2.11355e-01 -1.04096e+00  5.98333e+00
       H  8.98733e-01 -2.01230e+00  7.04683e+00
       H -8.18363e-01 -2.22464e+00  7.30996e+00
       C  6.69382e-02 -3.07877e+00  5.51755e+00
       O -9.03214e-01 -3.75564e+00  5.26225e+00
       N  1.23676e+00 -3.21193e+00  4.92037e+00
       H  2.04324e+00 -2.64085e+00  5.18776e+00
       C  1.49551e+00 -4.21736e+00  3.83789e+00
       H  5.93966e-01 -4.19363e+00  3.24094e+00
       C  2.62338e+00 -3.81214e+00  2.94876e+00
       H  3.50524e+00 -3.77874e+00  3.52595e+00
       H  2.44542e+00 -2.80273e+00  2.59648e+00
       C  2.79024e+00 -4.54223e+00  1.66818e+00
       O  3.88689e+00 -4.60900e+00  1.06055e+00
       O  1.75130e+00 -5.04665e+00  1.15202e+00
       H  1.89416e+00 -5.55346e+00  3.07679e-01
       C  1.81099e+00 -5.67371e+00  4.27867e+00
       O  2.88987e+00 -6.21300e+00  4.26296e+00
       N  7.57515e-01 -6.30909e+00  4.83080e+00
       H  8.02672e-01 -7.21970e+00  5.19673e+00
       H -9.54195e-02 -5.88002e+00  4.71397e+00
       O -1.86526e+01 -1.53781e+01 -6.18710e+00
       H -1.86147e+01 -1.44209e+01 -6.51048e+00
       H -1.91529e+01 -1.57743e+01 -6.92006e+00
       O -1.74874e+01 -1.49899e+01 -2.30728e+01
       H -1.80058e+01 -1.57974e+01 -2.28942e+01
       H -1.74644e+01 -1.51155e+01 -2.40614e+01
       O -2.54623e+01 -1.02335e+01 -6.09928e+00
       H -2.54512e+01 -9.70924e+00 -5.27518e+00
       H -2.50000e+01 -1.09651e+01 -5.70509e+00
       O -1.48305e+01 -2.08436e+01 -1.38173e+01
       H -1.42128e+01 -2.04122e+01 -1.32528e+01
       H -1.50262e+01 -2.01800e+01 -1.45289e+01
       O -1.58001e+01 -1.59359e+01 -1.17789e+01
       H -1.60939e+01 -1.50001e+01 -1.18719e+01
       H -1.62730e+01 -1.63221e+01 -1.25400e+01
       O -2.77023e+01 -1.84332e+01 -1.92657e+01
       H -2.67466e+01 -1.83200e+01 -1.90516e+01
       H -2.80375e+01 -1.74579e+01 -1.93308e+01
       O -2.26937e+01 -2.40480e+01 -1.66736e+01
       H -2.17568e+01 -2.41823e+01 -1.66269e+01
       H -2.28216e+01 -2.42845e+01 -1.75933e+01
       O -1.59571e+01 -1.44223e+01 -8.37319e+00
       H -1.57711e+01 -1.52415e+01 -7.85382e+00
       H -1.52891e+01 -1.38641e+01 -7.96611e+00
       O -1.57068e+01 -2.06679e+01 -1.89177e+01
       H -1.52816e+01 -2.14287e+01 -1.85283e+01
       H -1.49722e+01 -1.99870e+01 -1.91027e+01
       O -7.91056e+00 -2.57160e+01 -7.74600e+00
       H -7.86507e+00 -2.52088e+01 -6.90965e+00
       H -8.21674e+00 -2.50555e+01 -8.38646e+00
       O -1.40935e+01 -1.83660e+01 -1.89013e+01
       H -1.34698e+01 -1.86755e+01 -1.81888e+01
       H -1.34744e+01 -1.80801e+01 -1.95519e+01
       O -4.20040e+00 -4.50173e+00 -1.14317e+01
       H -4.55704e+00 -4.64947e+00 -1.05285e+01
       H -4.97036e+00 -4.49756e+00 -1.19307e+01
       O -1.16967e+01 -1.74762e+01 -2.01827e+01
       H -1.17212e+01 -1.77160e+01 -2.10763e+01
       H -1.08365e+01 -1.77660e+01 -2.00505e+01
       O -1.83704e+01 -4.98430e+00 -9.21110e+00
       H -1.78152e+01 -4.37848e+00 -8.65467e+00
       H -1.81980e+01 -5.81810e+00 -8.68590e+00
       O -1.43525e+01 -3.31391e+01 -2.22229e+01
       H -1.43833e+01 -3.40438e+01 -2.26135e+01
       H -1.40865e+01 -3.32846e+01 -2.12984e+01
       O -2.80111e+00 -2.50734e+01 -1.51734e+01
       H -2.45418e+00 -2.59716e+01 -1.49803e+01
       H -3.01586e+00 -2.48713e+01 -1.42492e+01
       O -2.38579e+01 -2.01964e+01 -1.34881e+01
       H -2.29409e+01 -2.03272e+01 -1.34967e+01
       H -2.38645e+01 -1.92403e+01 -1.36352e+01
       O -7.45320e+00 -1.41753e+01 -1.97119e+01
       H -6.64934e+00 -1.46994e+01 -1.94597e+01
       H -7.44825e+00 -1.45017e+01 -2.06125e+01
       O -1.81395e+01 -1.52251e+01 -1.31819e+00
       H -1.90459e+01 -1.55639e+01 -1.26636e+00
       H -1.79242e+01 -1.54964e+01 -2.18586e+00
       O -1.42739e+01 -1.59759e+01 -2.19892e+01
       H -1.35391e+01 -1.59072e+01 -2.26284e+01
       H -1.50515e+01 -1.57495e+01 -2.25334e+01
       O -2.02843e+01 -2.71955e+01 -4.69840e+00
       H -2.07028e+01 -2.65254e+01 -4.24408e+00
       H -1.95194e+01 -2.72851e+01 -4.13681e+00
       O -3.03483e+01 -9.02634e+00 -2.08197e+01
       H -3.05214e+01 -8.68835e+00 -1.99448e+01
       H -3.09691e+01 -8.54874e+00 -2.14214e+01
       O -4.83949e+00 -4.62669e+00 -2.30646e+01
       H -4.29377e+00 -4.26643e+00 -2.38265e+01
       H -5.28028e+00 -3.88953e+00 -2.27103e+01
       O -3.09295e+01 -1.14627e+01 -8.89582e+00
       H -3.03841e+01 -1.13981e+01 -9.64752e+00
       H -3.04791e+01 -1.08369e+01 -8.31320e+00
       O -1.61346e+01 -2.64888e+01 -2.07528e+01
       H -1.56062e+01 -2.57739e+01 -2.02740e+01
       H -1.65770e+01 -2.59450e+01 -2.14380e+01
       O -1.70286e+01 -1.68829e+01 -1.42487e+01
       H -1.63863e+01 -1.75505e+01 -1.46632e+01
       H -1.75217e+01 -1.65181e+01 -1.50024e+01
       O -6.82703e+00  7.40166e+00 -4.18477e+00
       H -7.26103e+00  6.55627e+00 -4.41606e+00
       H -7.65606e+00  7.93175e+00 -3.94726e+00
       O -7.39029e+00  5.95777e+00 -8.06581e+00
       H -6.63222e+00  6.38770e+00 -7.66349e+00
       H -7.07533e+00  5.01297e+00 -7.97005e+00
       O -1.46139e+01 -9.44867e+00 -6.59101e+00
       H -1.43700e+01 -8.85134e+00 -5.91044e+00
       H -1.51124e+01 -8.92255e+00 -7.18501e+00
       O -9.04718e+00 -1.75962e+01 -1.98112e+01
       H -8.63711e+00 -1.70627e+01 -1.90160e+01
       H -8.53627e+00 -1.84164e+01 -1.97037e+01
       O  1.82670e+00 -5.17650e+00 -3.08167e+01
       H  1.66598e+00 -4.33644e+00 -3.03355e+01
       H  1.38292e+00 -5.87414e+00 -3.03144e+01
       O -5.98911e+00 -3.20186e+01 -1.00084e+01
       H -5.68630e+00 -3.28990e+01 -1.03912e+01
       H -6.91939e+00 -3.22213e+01 -9.89385e+00
       O  4.64834e+00  1.23171e+00 -1.29684e+01
       H  4.97313e+00  1.60697e+00 -1.21211e+01
       H  4.94632e+00  3.29177e-01 -1.28804e+01
       O -2.39748e+01 -1.74351e+01 -1.38672e+01
       H -2.30104e+01 -1.72586e+01 -1.39019e+01
       H -2.43125e+01 -1.66118e+01 -1.42637e+01
       O -8.10155e+00 -1.15227e+01 -1.87889e+01
       H -7.29976e+00 -1.12328e+01 -1.93308e+01
       H -8.00574e+00 -1.24544e+01 -1.90001e+01
       O -1.43931e+01 -1.89735e+01 -2.20364e+01
       H -1.46979e+01 -1.83038e+01 -2.14513e+01
       H -1.50411e+01 -1.89284e+01 -2.27728e+01
       O -2.25567e+01 -1.08501e+01 -6.57945e-01
       H -2.25667e+01 -9.91718e+00 -9.07344e-01
       H -2.16590e+01 -1.10845e+01 -8.01118e-01
       O -1.51898e+01 -2.86787e+01 -9.08655e+00
       H -1.55130e+01 -2.80008e+01 -8.45935e+00
       H -1.42202e+01 -2.85850e+01 -8.98023e+00
       O -3.64353e+00 -3.71733e+00  5.07691e+00
       H -4.24775e+00 -3.05138e+00  5.40500e+00
       H -2.77056e+00 -3.28159e+00  4.95681e+00
       O -1.40764e+00 -1.47553e+01 -2.61372e+01
       H -1.19672e+00 -1.48235e+01 -2.52223e+01
       H -1.45997e+00 -1.38091e+01 -2.61580e+01
       O -9.65542e+00 -2.73902e+01 -1.76904e+01
       H -9.27140e+00 -2.64955e+01 -1.76377e+01
       H -8.84171e+00 -2.78206e+01 -1.80372e+01
       O -2.07625e+01 -1.20385e+01 -9.64026e+00
       H -2.11347e+01 -1.29511e+01 -9.84606e+00
       H -2.07150e+01 -1.21892e+01 -8.67688e+00
       O -6.54944e+00 -1.29350e+01 -1.31327e+01
       H -6.32878e+00 -1.32139e+01 -1.39861e+01
       H -7.16963e+00 -1.21656e+01 -1.32449e+01
       O -2.09894e+01 -5.21418e+01 -2.03871e+01
       H -2.12962e+01 -5.12929e+01 -2.00054e+01
       H -2.04647e+01 -5.17284e+01 -2.11152e+01
       O -1.63450e+01 -1.59559e+01 -4.31957e+01
       H -1.55141e+01 -1.56941e+01 -4.36044e+01
       H -1.60666e+01 -1.67918e+01 -4.27510e+01
       O -1.11535e+01 -1.86530e+01 -3.05425e+01
       H -1.20143e+01 -1.89111e+01 -3.08191e+01
       H -1.06549e+01 -1.89904e+01 -3.12707e+01
       O -2.17986e+01 -1.63610e+01 -1.15096e+01
       H -2.09547e+01 -1.62702e+01 -1.18469e+01
       H -2.18538e+01 -1.73022e+01 -1.13276e+01
       O -1.55213e+01 -7.60420e+00 -1.17685e+01
       H -1.56400e+01 -8.56557e+00 -1.19846e+01
       H -1.52586e+01 -7.66386e+00 -1.08800e+01
       O -8.17644e+00 -2.28605e+01 -1.46885e+01
       H -7.58322e+00 -2.36738e+01 -1.48124e+01
       H -8.39287e+00 -2.24305e+01 -1.55425e+01
       O -5.89546e-01 -8.54645e+00 -8.88233e-01
       H -7.57751e-01 -8.75471e+00 -1.82063e+00
       H  3.19410e-01 -8.80714e+00 -6.65501e-01
       O -6.93459e+00  5.57339e+00  1.45658e+00
       H -6.94186e+00  5.18028e+00  6.30678e-01
       H -5.97900e+00  5.76208e+00  1.62995e+00
       O -2.30834e+00 -6.52791e+00 -1.24545e+01
       H -3.04658e+00 -6.52581e+00 -1.31084e+01
       H -2.75803e+00 -6.24710e+00 -1.16556e+01
       O -1.15387e+01 -6.95620e+00 -4.47204e+00
       H -1.18425e+01 -7.83991e+00 -4.35400e+00
       H -1.08523e+01 -6.78458e+00 -3.78580e+00
       O -1.23753e+01 -1.95617e+00 -5.01413e+00
       H -1.31940e+01 -2.31075e+00 -4.72221e+00
       H -1.19841e+01 -2.80810e+00 -5.23764e+00
       O -1.10230e+01 -2.12452e+01 -5.00393e+00
       H -1.11709e+01 -2.13098e+01 -4.04480e+00
       H -1.10666e+01 -2.21979e+01 -5.23002e+00
       O -1.57849e+01 -2.81966e+01 -2.42618e+01
       H -1.52246e+01 -2.89578e+01 -2.42985e+01
       H -1.52876e+01 -2.77536e+01 -2.35672e+01
       O -2.09166e+01 -2.54423e+01 -1.06109e+01
       H -2.02534e+01 -2.52709e+01 -9.92067e+00
       H -2.12019e+01 -2.63021e+01 -1.04568e+01
       O -1.38075e+01 -2.39446e+01  1.86746e+00
       H -1.32411e+01 -2.38334e+01  1.06234e+00
       H -1.46810e+01 -2.38417e+01  1.47338e+00
       O -6.07689e-01  4.64571e+00 -8.30253e+00
       H -6.01057e-01  4.27083e+00 -7.38477e+00
       H  1.32675e-01  4.11348e+00 -8.77776e+00
       O -1.41960e+01 -2.88877e+01 -2.10386e+01
       H -1.42731e+01 -2.84475e+01 -2.18870e+01
       H -1.35469e+01 -2.83739e+01 -2.05533e+01
       O -1.47276e+01 -1.22129e+00 -3.36554e+01
       H -1.43893e+01 -3.21154e-01 -3.38130e+01
       H -1.45944e+01 -1.32430e+00 -3.26820e+01
       O -2.18290e+01 -2.24211e+01 -6.35689e+00
       H -2.22884e+01 -2.20787e+01 -5.52701e+00
       H -2.09521e+01 -2.21965e+01 -6.08656e+00
       O -1.11829e+01 -2.83743e+01 -2.39206e+01
       H -1.18264e+01 -2.86290e+01 -2.45857e+01
       H -1.09296e+01 -2.92581e+01 -2.35422e+01
       O -7.02449e+00 -2.53206e+01 -1.12689e+01
       H -6.98795e+00 -2.43462e+01 -1.14067e+01
       H -6.99937e+00 -2.57006e+01 -1.21140e+01
       O -7.84443e+00 -1.68093e+01 -1.74688e+01
       H -7.86906e+00 -1.59403e+01 -1.70828e+01
       H -7.63383e+00 -1.73588e+01 -1.66755e+01
       O -1.43782e+01 -3.05919e+01 -2.44217e+00
       H -1.45399e+01 -3.00561e+01 -3.23862e+00
       H -1.47197e+01 -3.00028e+01 -1.70994e+00
       O -3.41820e+01 -8.05352e+00 -4.53438e+00
       H -3.47511e+01 -8.80005e+00 -4.63764e+00
       H -3.49022e+01 -7.39785e+00 -4.43870e+00
       O -1.79588e+01 -2.36840e+01 -2.02256e+01
       H -1.79088e+01 -2.34337e+01 -1.92965e+01
       H -1.80655e+01 -2.28600e+01 -2.05773e+01
       O -1.91224e+01 -6.93386e+00 -2.75773e+01
       H -1.92608e+01 -7.35356e+00 -2.67396e+01
       H -1.82084e+01 -7.14544e+00 -2.77044e+01
       O -2.68419e+01 -1.25537e+01 -2.13432e+01
       H -2.73850e+01 -1.19548e+01 -2.09534e+01
       H -2.62571e+01 -1.28215e+01 -2.06681e+01
       O -2.44959e+01 -1.45063e+01 -3.12432e+00
       H -2.47261e+01 -1.50669e+01 -2.37175e+00
       H -2.42485e+01 -1.52191e+01 -3.77254e+00
       O  7.38830e-01 -1.87117e+01 -9.64044e+00
       H  1.65077e+00 -1.83248e+01 -9.46963e+00
       H  4.93665e-01 -1.81553e+01 -1.03654e+01
       O -2.03662e+01 -2.63346e+01 -2.32832e+01
       H -2.10283e+01 -2.60385e+01 -2.39807e+01
       H -2.04351e+01 -2.72814e+01 -2.32931e+01
       O -2.14300e+01 -1.46773e+01 -1.63045e+01
       H -2.16328e+01 -1.42904e+01 -1.54552e+01
       H -2.10761e+01 -1.54553e+01 -1.59903e+01
       O -1.93266e+01 -2.85602e+01 -9.82665e+00
       H -1.86272e+01 -2.92608e+01 -9.96871e+00
       H -1.91639e+01 -2.82239e+01 -8.91829e+00
       O -2.63269e+01 -2.98444e+01 -3.03060e+01
       H -2.64732e+01 -3.07719e+01 -3.05679e+01
       H -2.54777e+01 -3.00499e+01 -2.98511e+01
       O -8.33952e+00 -1.14819e+01  5.57211e+00
       H -8.17927e+00 -1.21637e+01  4.90752e+00
       H -7.81872e+00 -1.18746e+01  6.28563e+00
       O -3.12052e+01 -7.88634e+00 -3.44516e+00
       H -3.04978e+01 -8.20363e+00 -3.98539e+00
       H -3.19661e+01 -8.25228e+00 -3.84893e+00
       O -1.73476e+01 -1.60413e+01 -3.67965e+00
       H -1.64465e+01 -1.64468e+01 -3.94790e+00
       H -1.77617e+01 -1.59362e+01 -4.56269e+00
       O -1.93511e+01 -1.73359e+01 -3.32097e+01
       H -1.97070e+01 -1.77222e+01 -3.24298e+01
       H -1.93678e+01 -1.81165e+01 -3.37946e+01
       O -9.48593e+00 -2.61372e+01 -1.93826e+00
       H -1.01503e+01 -2.64484e+01 -1.31292e+00
       H -8.93798e+00 -2.69708e+01 -1.93491e+00
       O -1.20660e+01 -1.51123e+01 -1.84096e+01
       H -1.30881e+01 -1.51437e+01 -1.83621e+01
       H -1.19555e+01 -1.54403e+01 -1.92563e+01
       O -2.06107e+01 -9.47630e-01 -1.02392e+01
       H -2.09370e+01 -5.17190e-01 -9.41225e+00
       H -2.09895e+01 -1.85407e+00 -1.01396e+01
       O -1.13929e+01 -3.28014e+01 -1.74023e+01
       H -1.07371e+01 -3.22360e+01 -1.78516e+01
       H -1.07857e+01 -3.35419e+01 -1.73077e+01
       O -1.44653e+01 -2.23181e+01 -2.96582e+01
       H -1.48963e+01 -2.28245e+01 -3.03686e+01
       H -1.50757e+01 -2.15948e+01 -2.97343e+01
       O -1.03411e+01 -2.48456e+01 -1.32138e+01
       H -1.01248e+01 -2.57450e+01 -1.34942e+01
       H -1.08800e+01 -2.46491e+01 -1.39648e+01
       O -1.34882e+01 -6.73539e+00 -6.30696e+00
       H -1.26609e+01 -6.61142e+00 -5.70000e+00
       H -1.31679e+01 -7.22683e+00 -7.10339e+00
       O -1.65960e+01 -2.29907e+01 -3.34479e+01
       H -1.60663e+01 -2.31869e+01 -3.26736e+01
       H -1.71189e+01 -2.37479e+01 -3.33746e+01
       O -3.28143e+01 -2.09015e+01 -1.34321e+01
       H -3.23527e+01 -2.16043e+01 -1.39540e+01
       H -3.37108e+01 -2.10378e+01 -1.36923e+01
       O -2.58166e+01 -2.03973e+01  3.90360e+00
       H -2.62633e+01 -2.04433e+01  4.75452e+00
       H -2.59508e+01 -1.94819e+01  3.64437e+00
       O -1.12441e+01 -1.80894e+01 -5.61296e+00
       H -1.08399e+01 -1.72962e+01 -5.98813e+00
       H -1.03641e+01 -1.85125e+01 -5.53455e+00
       O -1.37496e+01 -1.67152e+01 -7.66385e+00
       H -1.30405e+01 -1.65767e+01 -8.32121e+00
       H -1.44113e+01 -1.69732e+01 -8.25631e+00
       O  6.68067e+00 -1.13303e+01  1.77086e+01
       H  6.64139e+00 -1.19877e+01  1.69495e+01
       H  5.86032e+00 -1.08412e+01  1.76260e+01
       O -9.54292e+00  2.75027e+00 -1.20933e+01
       H -8.79552e+00  3.31929e+00 -1.24209e+01
       H -9.15126e+00  2.09742e+00 -1.14618e+01
       O -2.11018e+00  3.86492e+00 -4.01340e+00
       H -2.92911e+00  3.36833e+00 -3.66044e+00
       H -2.31315e+00  4.83997e+00 -3.99157e+00
       O -1.09251e+01 -1.00349e+01 -2.31406e+01
       H -1.03530e+01 -1.08547e+01 -2.32406e+01
       H -1.10475e+01 -9.77750e+00 -2.40825e+01
       O -6.94998e+00 -1.12327e+01 -2.16409e+01
       H -7.20811e+00 -1.04061e+01 -2.12479e+01
       H -6.08851e+00 -1.08235e+01 -2.19266e+01
       O -1.29111e+01 -1.16027e+01 -2.86683e+01
       H -1.19632e+01 -1.15855e+01 -2.83925e+01
       H -1.27731e+01 -1.12306e+01 -2.95153e+01
       O -1.97386e+01 -2.59655e+01 -2.04853e+01
       H -1.91257e+01 -2.51372e+01 -2.04110e+01
       H -1.98861e+01 -2.60843e+01 -2.14362e+01
       O -6.12571e+00 -6.91072e+00 -1.08036e+01
       H -5.31278e+00 -7.02855e+00 -1.03120e+01
       H -6.35668e+00 -7.87735e+00 -1.09342e+01
       O -1.85929e+01 -2.21806e+01 -2.63313e+00
       H -1.84700e+01 -2.31479e+01 -2.70209e+00
       H -1.87003e+01 -2.20522e+01 -1.66706e+00
       O -3.44545e+00 -3.09550e+00 -1.80014e+01
       H -2.65143e+00 -3.50823e+00 -1.75100e+01
       H -3.09627e+00 -2.99890e+00 -1.88929e+01
       O -9.74995e+00 -1.09092e+01 -1.24564e+01
       H -8.89827e+00 -1.05429e+01 -1.28730e+01
       H -1.01648e+01 -1.00565e+01 -1.23163e+01
       O  9.05072e+00  4.03761e+00 -3.32656e+01
       H  9.55364e+00  3.28807e+00 -3.27850e+01
       H  9.45095e+00  4.88056e+00 -3.29336e+01
       O -2.19359e+01 -1.74635e+01 -8.00711e+00
       H -2.25783e+01 -1.79034e+01 -8.63268e+00
       H -2.20577e+01 -1.81449e+01 -7.29064e+00
       O -2.06757e+01 -2.85021e+01 -1.41112e+01
       H -2.10691e+01 -2.89693e+01 -1.33336e+01
       H -1.99129e+01 -2.80852e+01 -1.36130e+01
       O -6.56350e+00 -1.61252e+01 -3.42892e+00
       H -7.02117e+00 -1.59472e+01 -4.26805e+00
       H -7.36539e+00 -1.63068e+01 -2.83733e+00
       O -9.25239e+00 -1.67404e+01 -2.53846e+01
       H -8.45722e+00 -1.72804e+01 -2.55845e+01
       H -9.15767e+00 -1.68067e+01 -2.44282e+01
       O -1.28982e+01 -2.29723e-01 -1.50248e+01
       H -1.26319e+01 -1.02633e+00 -1.44640e+01
       H -1.35557e+01  1.51886e-01 -1.44226e+01
       O -1.81308e+01 -2.06750e+01 -1.74403e+01
       H -1.80741e+01 -2.16639e+01 -1.75168e+01
       H -1.74414e+01 -2.05067e+01 -1.80945e+01
       O -9.96041e+00 -1.34714e+01 -1.36969e+01
       H -1.09101e+01 -1.29928e+01 -1.39241e+01
       H -9.69264e+00 -1.25711e+01 -1.33566e+01
       O -1.68627e+01 -3.54847e+01 -3.42628e+01
       H -1.77575e+01 -3.53752e+01 -3.45565e+01
       H -1.70080e+01 -3.61352e+01 -3.35255e+01
       O -2.18107e+01 -9.69660e+00 -1.09622e+01
       H -2.27614e+01 -9.60683e+00 -1.08592e+01
       H -2.16339e+01 -1.06375e+01 -1.07094e+01
       O -1.31548e+01 -2.67523e+01 -2.70360e+01
       H -1.24380e+01 -2.73865e+01 -2.70751e+01
       H -1.29815e+01 -2.61082e+01 -2.77578e+01
       O -1.43685e+01 -2.23604e+01 -1.04124e+01
       H -1.47918e+01 -2.24644e+01 -1.12908e+01
       H -1.46955e+01 -2.14112e+01 -1.01669e+01
       O -2.80964e+01 -2.81172e+01 -2.39003e+01
       H -2.71792e+01 -2.79848e+01 -2.37115e+01
       H -2.80845e+01 -2.79257e+01 -2.48961e+01
       O -1.79486e+01 -1.48376e+01 -1.02749e+01
       H -1.72222e+01 -1.46178e+01 -9.69796e+00
       H -1.85636e+01 -1.51980e+01 -9.63266e+00
       O -6.77048e+00 -2.91792e+01 -3.33449e+01
       H -6.05941e+00 -2.85829e+01 -3.36476e+01
       H -6.91156e+00 -2.88501e+01 -3.24585e+01
       O -1.53112e+00 -1.88094e+01 -2.75984e+01
       H -2.32309e+00 -1.93581e+01 -2.78032e+01
       H -1.66864e+00 -1.80742e+01 -2.82033e+01
       O -1.25578e+01 -1.27372e+01 -1.38509e+01
       H -1.29591e+01 -1.27656e+01 -1.47705e+01
       H -1.25165e+01 -1.17419e+01 -1.38168e+01
       O -1.69271e+01 -5.14665e+00 -1.48496e+01
       H -1.77914e+01 -5.51351e+00 -1.45833e+01
       H -1.69243e+01 -4.34235e+00 -1.43489e+01
       O -9.96087e+00 -5.61492e-01 -1.73014e+01
       H -9.42156e+00  2.61894e-01 -1.73594e+01
       H -1.07977e+01 -1.54818e-01 -1.73407e+01
       O -1.06329e+01 -1.76769e+00 -6.33340e-01
       H -1.03308e+01 -2.01148e+00  2.04976e-01
       H -1.13753e+01 -1.22016e+00 -4.55986e-01
       O -1.76043e+01 -1.22744e+01 -1.65996e+00
       H -1.75837e+01 -1.31948e+01 -1.36567e+00
       H -1.74952e+01 -1.18870e+01 -7.80916e-01
       O -1.24007e+01 -1.99781e+01 -1.27090e+01
       H -1.20708e+01 -1.95646e+01 -1.19230e+01
       H -1.18990e+01 -2.08725e+01 -1.27933e+01
       O -2.23298e+01 -1.42051e+01 -9.61618e+00
       H -2.21935e+01 -1.50424e+01 -1.01504e+01
       H -2.29599e+01 -1.36824e+01 -1.01549e+01
       O -1.00974e+01 -6.68755e+00 -1.00322e+01
       H -9.37379e+00 -6.77234e+00 -9.34206e+00
       H -1.05460e+01 -5.94519e+00 -9.66197e+00
       O -2.00735e+01 -2.44329e+01 -4.06049e+01
       H -1.93082e+01 -2.50225e+01 -4.01836e+01
       H -1.98890e+01 -2.36525e+01 -4.00720e+01
       O -1.08487e+01 -2.38991e+01 -5.53908e+00
       H -1.07729e+01 -2.39811e+01 -6.50200e+00
       H -1.16072e+01 -2.44413e+01 -5.37064e+00
       O -2.96508e+00 -1.01488e+01 -1.36675e+01
       H -3.39391e+00 -1.02722e+01 -1.27815e+01
       H -3.04647e+00 -1.09889e+01 -1.41840e+01
       O -3.73484e+01 -1.48912e+01  9.50920e+00
       H -3.65768e+01 -1.44737e+01  9.09718e+00
       H -3.72183e+01 -1.49299e+01  1.04618e+01
       O -7.16277e+00 -1.81500e+01 -7.88474e+00
       H -7.14475e+00 -1.71935e+01 -7.62185e+00
       H -6.76894e+00 -1.84921e+01 -7.11517e+00
       O -2.61341e+01 -1.86299e+01  1.42484e+01
       H -2.60727e+01 -1.82111e+01  1.33382e+01
       H -2.70940e+01 -1.86010e+01  1.44164e+01
       O -1.04426e+01 -2.77134e+01 -2.74045e+01
       H -9.85556e+00 -2.82017e+01 -2.67400e+01
       H -9.92031e+00 -2.68883e+01 -2.75877e+01
       O -1.89977e+01 -2.48412e+01 -8.40264e+00
       H -1.88752e+01 -2.40638e+01 -7.86221e+00
       H -1.81263e+01 -2.48013e+01 -8.93134e+00
       O -1.56025e+01 -1.58719e+01  1.01497e+01
       H -1.58093e+01 -1.56462e+01  9.24781e+00
       H -1.58735e+01 -1.67503e+01  1.01167e+01
       O -1.27298e+01 -1.05476e+01 -9.06611e+00
       H -1.20562e+01 -9.89150e+00 -8.69970e+00
       H -1.29679e+01 -1.01001e+01 -9.95119e+00
       O -3.40885e+01 -1.78590e+01 -7.09722e+00
       H -3.31363e+01 -1.80536e+01 -7.06063e+00
       H -3.43929e+01 -1.87597e+01 -7.16992e+00
       O -1.50657e+01 -2.43065e+01 -1.97478e+01
       H -1.48341e+01 -2.36889e+01 -1.90781e+01
       H -1.60010e+01 -2.39446e+01 -1.99623e+01
       O -1.42509e+01 -1.10021e+01 -2.02970e-02
       H -1.39561e+01 -1.12450e+01 -9.35377e-01
       H -1.33731e+01 -1.07596e+01  2.50264e-01
       O -1.46339e+01 -2.29010e+01 -1.33658e+00
       H -1.44471e+01 -2.24991e+01 -2.22567e+00
       H -1.55767e+01 -2.26140e+01 -1.02833e+00
       O -1.31606e+01 -2.56753e+01 -4.43137e+00
       H -1.36463e+01 -2.61457e+01 -5.18060e+00
       H -1.29904e+01 -2.63680e+01 -3.82751e+00
       O -2.77825e+00 -7.09534e+00  1.07904e-02
       H -2.82791e+00 -6.34956e+00 -6.16735e-01
       H -2.01642e+00 -7.56709e+00 -3.05100e-01
       O -2.22953e+01 -2.18783e+01 -3.85468e+00
       H -2.18474e+01 -2.10479e+01 -3.71394e+00
       H -2.23903e+01 -2.22047e+01 -2.88359e+00
       O  2.19842e-01 -1.98637e+00  1.41949e+00
       H -3.20975e-01 -2.80491e+00  1.52620e+00
       H -2.94023e-01 -1.32174e+00  1.96347e+00
       O -1.73287e+01 -2.30380e+01 -6.89194e+00
       H -1.65675e+01 -2.24155e+01 -6.93675e+00
       H -1.69104e+01 -2.38567e+01 -6.57825e+00
       O -1.85780e+01 -2.16691e+01 -9.01629e+00
       H -1.81088e+01 -2.21232e+01 -9.76729e+00
       H -1.80732e+01 -2.20940e+01 -8.32801e+00
       O -2.06554e+01 -1.48124e+01 -4.37799e+00
       H -2.13876e+01 -1.49569e+01 -4.96257e+00
       H -1.98985e+01 -1.51250e+01 -4.91118e+00
       O -6.69326e+00 -8.25210e+00 -5.28564e+00
       H -5.80742e+00 -8.29694e+00 -4.91688e+00
       H -7.23996e+00 -8.71453e+00 -4.62785e+00
       O -5.38293e+00 -1.60140e+01 -1.47001e+01
       H -4.91774e+00 -1.57435e+01 -1.38833e+01
       H -4.82610e+00 -1.66604e+01 -1.50920e+01
       O -2.12424e+01 -1.72370e+01 -1.45558e+01
       H -2.07579e+01 -1.78586e+01 -1.40604e+01
       H -2.08178e+01 -1.73836e+01 -1.53984e+01
       O -6.66161e-01 -1.12396e+01 -8.07731e+00
       H -1.35677e+00 -1.08171e+01 -8.66116e+00
       H -1.08822e+00 -1.11134e+01 -7.19762e+00
       O -7.86528e+00 -2.28911e+01 -1.19894e+01
       H -7.09703e+00 -2.22689e+01 -1.22612e+01
       H -8.27234e+00 -2.30475e+01 -1.28752e+01
       O -6.05132e+00 -7.49183e+00 -3.02991e+01
       H -6.16295e+00 -7.85863e+00 -2.93924e+01
       H -6.51852e+00 -6.62910e+00 -3.02465e+01
       O -1.46831e+01 -3.10633e-01 -7.37441e-01
       H -1.41185e+01 -8.21102e-01 -1.38156e-01
       H -1.55599e+01 -8.46101e-01 -6.38335e-01
       O -8.34261e+00 -5.66688e+00 -1.46593e+01
       H -7.92176e+00 -6.48070e+00 -1.42974e+01
       H -8.96369e+00 -5.43491e+00 -1.40015e+01
       O -1.19840e+01  3.15037e+00 -8.45630e+00
       H -1.23185e+01  3.01506e+00 -7.59019e+00
       H -1.10562e+01  3.20622e+00 -8.21873e+00
       O -8.43314e+00  1.68307e+00 -1.63639e+01
       H -7.57616e+00  2.07087e+00 -1.63017e+01
       H -8.62091e+00  1.51696e+00 -1.54385e+01
       O -2.12524e+01 -1.17677e+01 -6.96627e+00
       H -2.03230e+01 -1.21229e+01 -6.69785e+00
       H -2.17915e+01 -1.19963e+01 -6.16698e+00
       O -1.81414e+01 -2.48988e+01 -3.19506e+00
       H -1.76231e+01 -2.51298e+01 -4.05868e+00
       H -1.76351e+01 -2.55096e+01 -2.55730e+00
       O -5.14343e+00 -2.73102e+00  4.06739e-01
       H -4.65223e+00 -3.23608e+00  1.09146e+00
       H -5.89909e+00 -3.35017e+00  3.40460e-01
       O -1.94405e+01 -1.63928e+01 -8.62105e+00
       H -1.90419e+01 -1.71949e+01 -8.96633e+00
       H -2.04394e+01 -1.67184e+01 -8.63647e+00
       O -4.98772e+00 -2.27310e+01 -2.95890e+01
       H -5.53350e+00 -2.33681e+01 -3.00829e+01
       H -4.48982e+00 -2.22760e+01 -3.03023e+01
       O -3.63938e+00 -1.93657e+01 -1.89537e+01
       H -4.13580e+00 -1.89867e+01 -1.82647e+01
       H -4.20611e+00 -1.91902e+01 -1.97887e+01
       O -1.15470e+01 -1.87964e+01  6.36209e+00
       H -1.12250e+01 -1.97010e+01  6.55477e+00
       H -1.09337e+01 -1.82858e+01  6.98765e+00
       O -1.92196e+01 -1.62537e+01 -1.22942e+01
       H -1.85094e+01 -1.66858e+01 -1.28175e+01
       H -1.88194e+01 -1.56528e+01 -1.16879e+01
       O -1.07310e+01 -2.90504e+00 -1.59830e+01
       H -1.03313e+01 -2.20254e+00 -1.64996e+01
       H -1.02626e+01 -2.87916e+00 -1.51514e+01
       O -2.48751e+01 -1.52376e+01 -1.51847e+01
       H -2.56173e+01 -1.47052e+01 -1.48287e+01
       H -2.43019e+01 -1.45201e+01 -1.55752e+01
       O -1.00383e+01 -2.07664e+01 -1.75957e+01
       H -1.01192e+01 -2.15874e+01 -1.80993e+01
       H -9.12077e+00 -2.06613e+01 -1.78025e+01
       O -1.74450e+01  4.16041e-01 -9.80081e+00
       H -1.77726e+01  1.36875e-01 -8.96994e+00
       H -1.70072e+01  1.25561e+00 -9.60619e+00
       O -3.15282e+00 -2.09386e+01 -1.33105e+01
       H -2.48166e+00 -2.04860e+01 -1.38183e+01
       H -2.86390e+00 -2.06730e+01 -1.24050e+01
       O -5.24013e+00 -2.93976e+01 -1.04520e+01
       H -5.52407e+00 -2.85391e+01 -1.01741e+01
       H -5.98085e+00 -3.00089e+01 -1.01352e+01
       O -2.39763e+01 -1.56194e+01  4.37883e+00
       H -2.39864e+01 -1.56061e+01  3.40418e+00
       H -2.48118e+01 -1.51278e+01  4.61695e+00
       O -6.64109e+00 -2.11210e+01 -6.44778e+00
       H -5.98270e+00 -2.04816e+01 -6.09174e+00
       H -7.52285e+00 -2.06989e+01 -6.23366e+00
       O -7.18025e+00 -1.92089e+01 -2.33288e+01
       H -7.00324e+00 -1.90665e+01 -2.42554e+01
       H -7.66326e+00 -1.83969e+01 -2.31157e+01
       O -3.55910e+01 -2.81079e+01 -2.37806e+01
       H -3.59046e+01 -2.87007e+01 -2.30761e+01
       H -3.46947e+01 -2.78153e+01 -2.34770e+01
       O -3.13920e+01 -1.64255e+01 -4.69709e+00
       H -3.07791e+01 -1.58238e+01 -5.10518e+00
       H -3.17239e+01 -1.59347e+01 -3.98887e+00
       O -2.25405e+00 -1.23184e+01 -3.40795e+00
       H -2.36457e+00 -1.20428e+01 -2.48428e+00
       H -2.83007e+00 -1.30914e+01 -3.28720e+00
       O -1.62614e+01 -2.44714e+01 -3.65959e+01
       H -1.53302e+01 -2.44531e+01 -3.62355e+01
       H -1.62012e+01 -2.53610e+01 -3.69580e+01
       O -1.82026e+01 -2.76138e+01 -2.89495e+01
       H -1.77793e+01 -2.79434e+01 -2.81256e+01
       H -1.78045e+01 -2.67890e+01 -2.90802e+01
       O -4.55197e+00 -9.73785e+00  3.68412e+00
       H -4.37507e+00 -1.02619e+01  4.45027e+00
       H -5.11998e+00 -9.04785e+00  4.06619e+00
       O -3.21823e+01 -8.52378e+00 -6.61834e+00
       H -3.29968e+01 -8.56622e+00 -6.06778e+00
       H -3.26593e+01 -8.21227e+00 -7.37947e+00
       O -2.78856e+01 -1.34392e+01 -4.73737e+00
       H -2.79915e+01 -1.24830e+01 -4.63994e+00
       H -2.84726e+01 -1.37263e+01 -4.00562e+00
       O -2.33757e+01 -5.51258e-01 -1.56100e+01
       H -2.40843e+01 -7.18815e-01 -1.49469e+01
       H -2.25681e+01 -9.22910e-01 -1.51032e+01
       O -2.84492e+00 -4.54080e+00 -1.11764e+00
       H -2.55888e+00 -3.79635e+00 -1.71024e+00
       H -3.63905e+00 -4.84133e+00 -1.58381e+00
       O -6.15926e+00 -2.45648e+00 -2.49844e+00
       H -6.99861e+00 -2.88282e+00 -2.41414e+00
       H -5.96400e+00 -2.30512e+00 -1.54336e+00
       O -1.13199e+01 -1.90252e+01 -1.03755e+01
       H -1.06608e+01 -1.91576e+01 -9.71456e+00
       H -1.08945e+01 -1.82406e+01 -1.07996e+01
       O -3.68101e+01 -1.66418e+01 -2.06743e+00
       H -3.77305e+01 -1.68276e+01 -2.46202e+00
       H -3.67269e+01 -1.56715e+01 -2.16875e+00
       O -2.20799e+01 -1.04488e+00 -2.80009e+01
       H -2.12226e+01 -6.12903e-01 -2.79761e+01
       H -2.27157e+01 -2.83621e-01 -2.80849e+01
       O -2.19831e+01 -7.60893e+00 -1.55050e+01
       H -2.24641e+01 -7.40701e+00 -1.62757e+01
       H -2.26679e+01 -7.49606e+00 -1.47911e+01
       O -1.03678e+01 -1.42656e+01  7.21480e+00
       H -1.09799e+01 -1.35232e+01  7.26027e+00
       H -1.03733e+01 -1.43560e+01  6.25365e+00
       O -7.54406e+00 -1.03185e+01 -1.38059e+01
       H -7.16008e+00 -1.07506e+01 -1.46271e+01
       H -6.92003e+00 -9.58205e+00 -1.37364e+01
       O -1.55574e+01 -7.68536e+00 -8.95844e+00
       H -1.53926e+01 -6.79707e+00 -8.68092e+00
       H -1.64215e+01 -7.96052e+00 -8.57190e+00
       O -2.15360e+01 -1.86110e+01 -3.91108e+00
       H -2.08204e+01 -1.84113e+01 -4.59832e+00
       H -2.16626e+01 -1.78080e+01 -3.45214e+00
       O -2.08022e+01 -2.35882e+00 -1.65540e+01
       H -2.04356e+01 -2.25791e+00 -1.56879e+01
       H -2.13961e+01 -3.08105e+00 -1.64188e+01
       O -2.73005e+01 -2.86551e+01 -6.89222e+00
       H -2.71850e+01 -2.95654e+01 -6.83830e+00
       H -2.64518e+01 -2.82674e+01 -6.69235e+00
       O -8.80356e+00 -2.33789e+01 -9.20560e+00
       H -9.55259e+00 -2.27698e+01 -9.19002e+00
       H -8.82155e+00 -2.35054e+01 -1.01727e+01
       O -6.27996e+00 -2.86716e+01 -3.05792e+01
       H -5.35081e+00 -2.89029e+01 -3.04394e+01
       H -6.78483e+00 -2.91781e+01 -2.99193e+01
       O -1.23213e+01 -1.72651e+01 -1.33419e+01
       H -1.25193e+01 -1.81778e+01 -1.29762e+01
       H -1.31857e+01 -1.69357e+01 -1.35542e+01
       O -1.45696e+01 -2.48047e+01 -3.12420e+01
       H -1.41244e+01 -2.56065e+01 -3.10475e+01