11135
# CELL(abcABC):   47.46614    47.46614    47.46614    90.00000    90.00000    90.00000  Step:           0  Bead:       0 forces{atomic_unit}  cell{angstrom}
       C -1.04321e-02 -1.01141e-02 -3.80401e-02
       H  2.29775e-02  1.79006e-02  8.51579e-03
       H  3.78545e-04  1.61430e-02  6.05304e-03
       H -3.16169e-04 -3.72988e-03  2.44102e-03
       C -3.90195e-02 -2.61185e-02  3.42062e-02
       O  2.33345e-02 -9.71352e-03 -1.36516e-02
       N  3.16810e-02  1.33998e-02 -2.30078e-03
       H -9.48819e-03  8.45403e-03  1.19382e-03
       C -2.03359e-02 -2.01942e-02  5.32579e-02
       H  1.57367e-02 -7.73063e-03 -2.56823e-02
       C -1.65729e-02  3.07029e-02 -5.75219e-03
       H  1.02376e-02  8.28084e-03 -5.05194e-03
       H  1.04059e-02 -1.94807e-02 -5.63902e-03
       C  1.86622e-02 -5.40995e-04 -1.86655e-02
       H -2.54135e-02 -1.24114e-02  1.27161e-02
       H -1.21617e-02  1.48969e-02  7.05325e-04
       C  3.51413e-02 -6.43610e-03 -2.42413e-02
       H  8.21788e-04  4.15826e-03  1.27391e-02
       H -6.94379e-03  1.96884e-03  3.55247e-03
       C  6.73770e-03  1.09812e-02  1.00244e-02
       H  3.23416e-03 -9.73416e-03 -1.10984e-03
       H -1.41235e-02 -1.03531e-02  3.56615e-03
       N -6.97194e-02 -1.70162e-02  4.56325e-02
       H  4.93111e-02  1.91799e-02 -3.20874e-02
       H  1.38986e-02 -8.65602e-03  1.21510e-03
       H -1.90359e-03  6.63125e-03 -6.80375e-03
       C -2.93994e-02  5.72067e-03 -1.18648e-02
       O  1.61857e-03  3.72393e-04 -4.51423e-03
       N -2.37987e-02 -2.09466e-02 -1.83340e-02
       H -6.64375e-03 -1.43426e-02 -1.80806e-02
       H  4.79620e-02  3.02316e-02  3.53026e-02
       O  4.29891e-03 -1.16103e-02 -9.18213e-04
       H  5.40079e-03 -2.04653e-03 -1.02178e-02
       H -9.77214e-03  1.45031e-02  9.36761e-03
       O  1.90624e-02  1.21165e-02 -6.66197e-03
       H -1.05196e-02 -7.86855e-03  2.04404e-03
       H -2.01657e-02 -5.97587e-03  1.00362e-02
       O -1.63681e-02 -9.52625e-03 -1.23327e-02
       H  6.51771e-03  2.35425e-03  1.47163e-03
       H -2.82517e-03  7.37605e-03  1.88194e-02
       O -3.69515e-02  3.65705e-02 -1.49357e-02
       H  1.42381e-02 -2.89562e-02 -1.93942e-02
       H  2.30793e-02 -1.02063e-02  2.88184e-02
       O -5.60875e-03 -2.55578e-02  2.93666e-03
       H  3.90839e-03  2.89648e-02  1.37743e-03
       H  6.58421e-04  4.03248e-03 -2.28540e-04
       O  5.65281e-03 -1.32165e-02 -5.67518e-03
       H -6.67956e-03  8.52782e-03  6.90162e-03
       H  4.79386e-03 -1.70888e-03 -3.83333e-03
       O  3.85652e-03  7.06123e-03  2.65660e-03
       H -4.66351e-03 -5.49940e-03 -4.92251e-03
       H  1.57198e-03 -6.11452e-03  3.95609e-03
       O -1.53832e-02  3.69844e-02 -3.01123e-02
       H  2.44219e-02 -1.45418e-02  2.55695e-02
       H  3.21115e-03 -1.73276e-02  5.50841e-03
       O -3.31735e-02  7.35975e-03 -8.55377e-03
       H  1.78735e-02 -5.93309e-03 -3.00870e-03
       H  1.04704e-02  6.50118e-03  1.76481e-02
       O  3.91783e-03  3.34248e-02 -4.55654e-03
       H -4.26622e-03 -1.04838e-02 -1.39818e-03
       H -4.40682e-03 -1.22070e-02  3.66329e-03
       O  1.18894e-02  3.33915e-04 -1.64945e-03
       H -1.03625e-02 -2.70372e-03  1.28375e-03
       H -3.88234e-03  3.10379e-03 -8.88296e-05
       O -3.34732e-03  1.19780e-02 -4.73541e-02
       H  4.07432e-03 -4.67038e-03  2.95269e-03
       H -3.19145e-03 -3.23418e-03  3.98468e-02
       O -1.13005e-02  2.82318e-02 -2.27722e-02
       H  8.29322e-03 -1.07891e-02 -8.09172e-03
       H  5.99959e-03 -1.53874e-02  1.77458e-02
       O -5.43296e-03  1.01403e-02 -2.78342e-02
       H -1.03808e-03  3.46729e-03  1.23573e-02
       H  9.81558e-04 -1.16462e-02  1.57026e-02
       O  2.77099e-02  2.27655e-02  1.43264e-02
       H -3.26348e-03 -2.74378e-03 -6.52345e-03
       H -2.22816e-02 -1.62437e-02 -1.10430e-02
       O -9.10024e-03 -2.51446e-02  7.67295e-04
       H  1.48553e-02  1.74607e-02  4.02005e-03
       H -4.32332e-03  8.46097e-03 -5.85476e-03
       O  3.20002e-02  3.06116e-02 -2.83591e-03
       H  7.05725e-04 -3.37652e-02  8.61993e-03
       H -3.21423e-02  2.12143e-04  3.31066e-04
       O -4.57470e-03 -1.48178e-03 -1.18128e-02
       H  1.13843e-02  8.22792e-03  1.64768e-02
       H -8.91351e-03 -6.23932e-03 -3.28977e-03
       O  2.39506e-02 -1.56427e-04 -2.70406e-02
       H -1.97029e-02 -1.05937e-02  1.18484e-02
       H -2.15973e-03  1.03166e-02  1.49946e-02
       O -2.30084e-02  2.78895e-02 -1.72761e-02
       H  2.48431e-02 -1.60812e-02  1.21821e-02
       H -4.46650e-04 -1.00517e-02  4.02597e-03
       O  7.82539e-03  1.00802e-02 -1.05409e-02
       H -5.91590e-03 -6.75303e-03 -6.91168e-03
       H -2.30038e-03 -9.58678e-03  8.37449e-03
       O -8.07788e-03 -1.55756e-03 -1.07560e-02
       H  6.19602e-03  2.10312e-03  1.19197e-02
       H -3.02069e-03  2.59138e-03  3.88577e-03
       O  3.22952e-02  7.32848e-03  5.52846e-03
       H -1.04568e-02 -4.64568e-03 -1.58145e-02
       H -1.41859e-02 -4.65169e-03  1.14026e-02
       O  6.05239e-03 -1.31050e-03  3.12972e-02
       H -1.50400e-03  1.36465e-02 -1.70504e-02
       H -3.95932e-03 -1.08355e-02 -1.35071e-02
       O -1.09717e-02  1.08484e-03 -1.08147e-02
       H  8.04540e-03 -1.01171e-02  8.39738e-03
       H  4.81853e-03  1.69464e-03  1.29972e-03
       O  1.41103e-03  1.14752e-02  2.86270e-02
       H -3.27990e-02  8.90298e-04 -6.94028e-03
       H  3.04132e-02 -1.10165e-02 -2.19167e-02
       O -2.66729e-02 -4.47452e-06  9.53500e-03
       H  1.38196e-02 -5.02619e-03 -1.27841e-02
       H  3.61777e-03  3.41684e-03  7.70912e-03
       O -4.61748e-02 -3.82865e-02  6.97822e-02
       H -8.46938e-03  3.40514e-03 -4.24558e-02
       H  4.71786e-02  3.31989e-02 -2.56398e-02
       O  1.14910e-02  6.55580e-03 -5.85739e-03
       H -8.17342e-03 -7.26938e-03  1.25720e-02
       H -1.90308e-03 -6.05662e-03  6.53858e-04
       O  1.36229e-03  3.21447e-02  3.57078e-03
       H -7.94721e-03 -2.30322e-02 -7.10641e-03
       H -1.61850e-03 -2.07382e-03 -1.14634e-03
       O  2.45982e-02 -2.48031e-02  8.66773e-03
       H -2.15689e-02  1.56098e-02 -1.32483e-03
       H -2.02813e-04  1.25050e-02 -7.50956e-03
       O -3.18826e-02  2.00396e-02 -1.64766e-02
       H  1.95073e-02 -1.97278e-02  2.02361e-02
       H  1.19875e-02  2.49032e-03 -3.93166e-03
       O -1.74471e-02  2.23738e-02  3.77534e-02
       H  2.75922e-02 -1.89112e-02 -1.94056e-02
       H -1.13246e-02 -2.37888e-03 -1.95873e-02
       O  3.23422e-02 -1.11733e-02 -6.42201e-03
       H -1.07941e-02  9.82221e-04  1.44481e-02
       H -1.29602e-02  9.82720e-03 -2.65801e-05
       O -6.09751e-03  2.14314e-02 -1.87457e-03
       H  4.29995e-03 -3.32207e-03  3.31582e-03
       H -3.37914e-03 -1.69518e-02  3.83080e-03
       O -1.86229e-02  2.83808e-03  2.04474e-02
       H  1.48975e-02  2.59381e-03 -1.60898e-02
       H  1.45167e-03  1.60318e-03 -1.25230e-03
       O  1.42772e-02  8.91340e-03  6.87805e-03
       H -1.74813e-02 -1.20979e-02 -1.08049e-02
       H  6.30738e-03  3.74986e-03  2.14726e-03
       O -5.28122e-03 -6.75044e-03  1.90262e-02
       H -2.22463e-03  8.34501e-03 -1.94672e-02
       H  9.41497e-03  2.67191e-03 -1.51161e-03
       O  2.70254e-02 -1.40264e-02 -1.47015e-02
       H -2.93570e-02  1.14219e-02 -2.18332e-03
       H  5.17097e-03  7.05470e-03  2.22892e-02
       O  1.20395e-02 -1.61280e-02  1.92603e-03
       H -9.60708e-03  5.27058e-03 -2.80259e-03
       H -7.30907e-03  6.06187e-03  2.48518e-03
       O -2.63860e-03  1.71197e-02  2.60616e-02
       H -1.20039e-02 -2.97941e-03 -1.18128e-02
       H  8.63140e-03 -1.52147e-02 -1.22738e-02
       O -1.36460e-02 -7.20324e-03 -8.20443e-03
       H  4.34973e-03  5.60573e-06  4.46028e-03
       H  1.56160e-02  3.71379e-03  8.63772e-03
       O -4.43367e-02  1.76232e-02  1.54903e-03
       H  4.22812e-02 -2.09179e-02  1.58783e-02
       H  4.00795e-03 -2.66241e-03 -1.38457e-02
       O -2.99601e-02 -2.69010e-03  1.18500e-02
       H  2.63135e-03  1.07480e-03  3.46201e-03
       H  3.09911e-02 -1.02365e-03 -1.54790e-02
       O  5.13766e-02 -2.03956e-02  3.06986e-02
       H -3.77661e-02 -1.48541e-02 -3.34288e-02
       H -1.86827e-02  3.97027e-02 -4.29618e-04
       O  2.74515e-03 -1.92880e-02  5.94627e-03
       H -2.53543e-03  2.62072e-03  6.14150e-03
       H  3.10185e-03  8.04001e-03 -1.56154e-02
       O  1.11428e-02  1.37026e-02  8.93528e-03
       H -1.34737e-03 -1.37451e-02 -5.93742e-03
       H -1.54949e-02 -6.29097e-04 -1.27551e-03
       O -1.30758e-02  1.53189e-02  7.47589e-03
       H  3.09342e-02 -2.14822e-02 -1.87391e-02
       H -1.36167e-02 -4.44552e-03  8.15130e-03
       O -1.35396e-04 -7.87882e-04 -2.75208e-03
       H  1.85106e-02 -4.09002e-03  2.46322e-03
       H -1.55301e-02  8.43555e-03 -7.32641e-03
       O -3.10131e-02  1.86981e-03  2.79864e-03
       H  1.97119e-02 -3.58946e-03 -1.86896e-03
       H  1.15572e-02 -8.95984e-05 -1.01494e-03
       O  6.23256e-03  7.28688e-03 -1.66226e-02
       H -8.91379e-03 -7.98011e-03  4.56171e-03
       H -1.20989e-03  6.41738e-04  1.43476e-02
       O -2.18125e-03  2.18413e-03  1.89993e-03
       H -7.86734e-03 -3.54507e-03  1.74270e-02
       H  1.36490e-02  2.54624e-03 -1.91919e-02
       O  2.44226e-02  2.42702e-02  1.04479e-02
       H -2.72981e-02 -3.03469e-02  7.36949e-03
       H  4.05319e-03  6.06473e-03 -8.55692e-03
       O -1.27797e-02 -7.25288e-03  1.22678e-02
       H  2.00981e-03  2.68639e-03  8.65263e-03
       H  9.79280e-03  7.42221e-03 -1.18368e-02
       O  9.94343e-03 -1.03370e-02 -1.78820e-02
       H -5.78926e-03  2.06759e-02  3.33629e-03
       H  7.56108e-04 -7.70333e-03  5.46985e-03
       O -4.32971e-02 -1.59692e-02  8.51581e-04
       H  4.11891e-02  1.85023e-02 -4.72572e-03
       H -1.66988e-03 -7.98631e-03  3.72722e-03
       O -4.23714e-03 -1.57092e-02  5.90160e-03
       H  1.69124e-03 -1.29198e-02  7.19702e-03
       H  1.56107e-03  2.98141e-02 -1.45983e-02
       O -5.21936e-03 -7.24762e-03  3.22486e-02
       H -1.59636e-03  1.21204e-02 -2.43477e-02
       H  8.36765e-03 -1.27021e-03 -7.25315e-03
       O -3.35688e-02  1.20147e-02  1.16141e-02
       H  4.32169e-03 -1.85893e-03 -7.14041e-03
       H  2.91251e-02 -5.59160e-03 -5.60359e-03
       O -5.11811e-03  1.15341e-02 -3.42129e-03
       H -6.83077e-04  5.89164e-03 -8.50804e-03
       H  8.81276e-03 -1.79444e-02  1.25266e-02
       O  4.46504e-03 -1.03025e-02 -3.29485e-02
       H  1.19530e-04  4.54182e-03  2.01113e-02
       H -7.35723e-03  3.23820e-03  1.02945e-02
       O -2.00550e-02 -4.05231e-02 -3.32961e-03
       H  2.50379e-02  4.14630e-02  1.08579e-02
       H -3.67422e-04 -4.12229e-03 -8.54028e-03
       O  4.45975e-02 -3.30222e-03 -1.29602e-02
       H -3.34574e-02  1.75453e-02  2.72377e-02
       H -1.39283e-02 -1.57800e-02 -7.51156e-03
       O  9.16789e-03 -3.86308e-02 -3.51520e-02
       H  1.86464e-03  7.67890e-03  4.18437e-02
       H -1.03732e-02  2.82716e-02  2.49912e-03
       O  5.48833e-03 -1.36429e-03 -2.22354e-03
       H -1.20887e-02 -6.57630e-03 -1.19370e-02
       H  8.65669e-04  9.81213e-03  1.66741e-02
       O -1.83039e-02 -1.84866e-02  1.82550e-02
       H  1.38395e-02 -6.90947e-04 -8.52405e-03
       H  7.34079e-03  2.02033e-02 -9.79280e-03
       O -1.97412e-03  9.16075e-03  6.87938e-03
       H -4.97532e-03 -8.77382e-03 -1.33125e-02
       H  3.51882e-04  5.22434e-03  6.31433e-03
       O -2.40239e-02  1.89902e-02 -1.53266e-02
       H  3.20492e-03 -4.32645e-03 -3.29357e-03
       H  1.75977e-02 -3.46617e-03  4.94859e-03
       O -4.52759e-02  4.54915e-03 -1.52015e-03
       H  3.37203e-02 -1.75108e-02 -5.83541e-03
       H  1.05864e-02  2.84357e-03  1.04155e-03
       O -7.20283e-04 -1.95574e-02 -1.04879e-02
       H  1.61106e-02 -5.59768e-03  4.73965e-03
       H -4.49323e-03  1.21747e-02  8.86679e-03
       O  2.27940e-04 -3.62020e-03  1.17661e-03
       H  5.77499e-04 -6.29441e-03 -8.33506e-03
       H -6.19380e-03  1.02305e-02  5.27432e-03
       O -6.17455e-03 -2.56268e-02  6.95386e-03
       H -1.07194e-02  1.95033e-02  4.26743e-04
       H  1.60896e-02  8.27931e-03 -1.39556e-02
       O -7.37349e-03 -2.78383e-02 -9.75160e-03
       H  2.46826e-03  9.04847e-03  4.61085e-03
       H  5.29745e-03  1.71597e-02  5.46437e-03
       O  7.56200e-03 -1.23369e-02 -3.38368e-03
       H  5.47030e-03 -9.39242e-03  9.95859e-05
       H -5.02212e-03  1.04403e-02 -5.01430e-03
       O  3.87957e-03  2.15360e-04  2.92028e-03
       H -7.76039e-03  3.54093e-02  5.65956e-03
       H  4.58577e-04 -3.79707e-02 -5.69032e-03
       O -3.38013e-02 -2.69255e-03  2.12811e-02
       H  3.25325e-02  4.26811e-04 -1.40967e-02
       H -2.07413e-03  4.08389e-03 -4.59328e-03
       O -3.24147e-03 -4.21601e-02  1.41728e-02
       H  2.89473e-03  3.36587e-02 -1.37289e-02
       H  4.47381e-03  1.06855e-02  9.27870e-04
       O -1.80506e-02 -2.24176e-02 -4.40130e-02
       H -5.66024e-03  2.91753e-02  5.69307e-03
       H  3.17558e-02 -2.18030e-03  3.28290e-02
       O  6.98149e-03  2.56145e-02 -1.78189e-02
       H  4.11881e-03 -8.52279e-03  2.50602e-02
       H -1.08594e-02 -1.25650e-02 -6.79540e-03
       O  1.88698e-02 -2.92489e-02  7.60725e-03
       H  2.04184e-02  2.83782e-02 -1.03521e-02
       H -3.59562e-02 -4.29021e-03  6.54712e-04
       O -4.19328e-03 -3.90566e-03 -5.87693e-03
       H  6.90224e-03  1.49735e-03  1.12808e-02
       H -6.48186e-03 -1.45343e-03 -9.23137e-03
       O -3.62654e-02 -2.80935e-02  4.81050e-02
       H  1.20706e-02  4.44403e-03 -8.04823e-03
       H  1.93674e-02  2.12648e-02 -3.15214e-02
       O  8.11272e-03  1.53558e-02 -1.55069e-02
       H  3.33653e-03 -1.14725e-02  2.89970e-03
       H -8.73243e-03 -4.30778e-03  7.73341e-03
       O  2.83263e-02 -2.14973e-03  1.52994e-02
       H -1.53456e-02 -6.61246e-03 -7.53055e-03
       H  3.56083e-05 -2.34229e-03 -6.57753e-03
       O  2.29058e-02  1.34607e-02 -3.33233e-02
       H -1.05728e-02 -2.21530e-02  1.08345e-02
       H -1.11475e-02  1.00293e-02  2.69040e-02
       O -1.88532e-02 -7.58618e-03 -1.13313e-02
       H  8.51235e-03  7.45551e-03  5.52185e-03
       H  5.53236e-03 -9.50847e-04  1.63095e-04
       O -7.62702e-03 -3.90920e-02 -2.82175e-03
       H  7.76634e-03  1.49010e-02  3.59331e-03
       H -1.20073e-02  8.55333e-03 -8.81359e-03
       O -3.26938e-02 -1.93729e-02  1.70708e-02
       H  1.88393e-02  1.19478e-02 -8.10185e-03
       H  1.59018e-02  7.93419e-03 -5.84044e-03
       O -8.21420e-03  7.48308e-03 -5.82374e-03
       H -1.20225e-02 -2.11797e-03 -5.23813e-03
       H  1.91857e-02 -5.86206e-03  6.74904e-03
       O  3.00856e-02  2.52950e-02 -1.07382e-02
       H  5.41776e-03 -1.37198e-03  3.77172e-04
       H -3.74638e-02 -1.91335e-02  1.33709e-02
       O -6.13561e-03 -1.32656e-02 -1.66748e-02
       H  4.38259e-03  2.51440e-03  1.40934e-02
       H -1.23083e-03  5.05329e-03  1.26537e-02
       O -2.46153e-02 -3.00699e-02 -8.91200e-03
       H  1.71596e-04  1.73102e-02  7.22383e-03
       H  2.46337e-02  1.46982e-02 -1.30467e-03
       O  1.13517e-04 -1.35215e-02 -4.94727e-03
       H  1.40895e-02  1.30076e-02 -1.95733e-02
       H -1.03081e-02  1.08988e-02  1.53215e-02
       O -1.65153e-03  3.20198e-03 -9.31217e-04
       H -2.81789e-03 -2.18232e-03 -7.87546e-03
       H -8.87003e-04 -4.34099e-03  8.72119e-03
       O -1.78339e-03  6.06249e-03  2.05305e-02
       H -7.75016e-03 -4.61033e-03 -1.28166e-02
       H  5.02426e-03 -4.55447e-03 -3.10610e-03
       O  1.78528e-02  3.54437e-03  2.02269e-02
       H -1.29811e-02 -1.66387e-02 -1.23676e-02
       H  2.27224e-03  1.54172e-02 -3.43495e-03
       O  1.09192e-02 -2.29336e-02 -1.86386e-03
       H -1.26430e-02  1.47319e-02 -1.72027e-03
       H  2.33125e-03  6.74126e-03  4.53867e-03
       O -1.72575e-02  1.29436e-02 -1.03224e-02
       H  1.55634e-02 -1.03435e-02 -2.65382e-03
       H -2.98714e-03 -7.08689e-04  1.23051e-02
       O -1.84563e-03  2.84038e-03 -7.75790e-03
       H  9.37773e-03 -6.53741e-05  9.33732e-03
       H -5.73521e-03 -1.53949e-03  1.34332e-03
       O -9.05582e-04 -3.94561e-03 -3.72676e-02
       H -5.21837e-03 -5.07426e-04  2.41810e-02
       H  9.20701e-03  6.11219e-03  1.23169e-02
       O  3.38061e-03  1.19125e-02  7.70898e-03
       H -3.23347e-03 -7.16887e-03 -4.38858e-03
       H -5.22261e-03  1.78846e-03 -3.19318e-03
       O  3.56948e-02 -1.18757e-02  2.31747e-02
       H -5.71884e-03  6.52644e-03  3.28656e-03
       H -2.47815e-02  4.06425e-03 -2.43045e-02
       O -6.46323e-03 -4.67872e-03 -8.94953e-04
       H  7.31469e-03 -2.10604e-03  7.33798e-04
       H -1.56107e-03  9.63843e-03 -4.17490e-03
       O -1.74756e-02 -2.24710e-03  1.95792e-03
       H  5.54827e-03 -1.43566e-03  1.30728e-04
       H  1.05374e-02  4.32143e-03 -2.24266e-03
       O -2.48483e-02 -4.33049e-03  1.69332e-02
       H  1.52055e-03 -2.62419e-03  1.57037e-03
       H  2.23626e-02  9.41775e-03 -2.19861e-02
       O  8.39722e-03 -4.12027e-03 -1.95823e-02
       H  1.11479e-02  9.83598e-04  2.47474e-02
       H -1.47723e-02  3.73646e-03 -1.55957e-02
       O -2.83351e-03 -2.93260e-02 -7.29366e-03
       H -4.99837e-03  1.99216e-02 -1.38580e-04
       H  1.63013e-03 -6.17023e-03  1.19456e-02
       O  2.47948e-02  1.03865e-02  1.90409e-02
       H -1.23553e-02  1.33529e-02 -6.00633e-03
       H -8.64342e-03 -2.68652e-02 -8.02907e-03
       O -2.13495e-02 -5.97270e-03  7.44086e-03
       H  1.10031e-02  1.12682e-02 -1.32474e-02
       H  7.73739e-03 -5.43509e-03 -1.86080e-03
       O -2.01267e-02  2.89686e-02  1.18959e-03
       H  1.95163e-02 -2.67263e-02 -1.25551e-02
       H -1.70529e-04 -9.36341e-04  9.03749e-03
       O  1.97913e-03  2.80850e-02 -6.58763e-03
       H -7.57335e-03 -1.83862e-03 -1.35790e-03
       H  1.25394e-02 -3.03748e-02  1.74788e-02
       O  2.49205e-02  1.86839e-02  2.01228e-03
       H -5.55269e-03 -1.53636e-02  2.35158e-03
       H -1.44879e-02  1.80066e-03 -6.59455e-03
       O -1.38197e-02 -2.10388e-02  1.27376e-02
       H -1.71454e-03  6.04881e-03  8.30958e-03
       H  1.36441e-02  1.18814e-02 -2.25231e-02
       O  2.44894e-02  3.39914e-02  3.94750e-02
       H  3.55300e-03  2.13340e-03  7.41592e-03
       H -1.67533e-02 -3.37211e-02 -4.74017e-02
       O -6.28165e-03 -9.72800e-03 -1.27614e-02
       H  7.57573e-03  6.09855e-03  2.80346e-03
       H -4.78917e-03  5.08085e-03  5.03558e-03
       O -2.32754e-03  4.29816e-03  3.53583e-02
       H -8.08184e-03 -7.68839e-03 -2.05559e-02
       H  4.01344e-03  4.18079e-03 -1.41357e-02
       O  4.38896e-02 -1.24732e-02  3.68799e-02
       H -6.69082e-03  1.69552e-03 -8.70316e-03
       H -2.55619e-02  4.06224e-03 -1.88667e-02
       O -1.46875e-02  2.35953e-02 -2.07784e-03
       H -1.47490e-03 -8.45758e-03  1.84058e-03
       H  1.00858e-02 -1.06403e-02  8.77408e-04
       O -1.42450e-02 -2.43593e-02  5.66021e-03
       H  8.68128e-03  8.95920e-03 -5.65189e-03
       H  7.40820e-03  1.53779e-02  7.71929e-03
       O -1.21013e-02 -1.89007e-02  2.27463e-02
       H -5.14338e-03 -7.95520e-04 -1.63012e-02
       H  2.02162e-02  1.37237e-02 -4.36181e-03
       O  2.84560e-02 -6.49324e-03 -1.76500e-02
       H -9.03569e-03  8.97788e-03  1.77376e-02
       H -1.29489e-02 -9.61349e-04 -2.89681e-03
       O  1.02981e-03 -5.16787e-03  2.34219e-02
       H  6.81112e-03 -2.46653e-03 -2.98199e-02
       H -7.73014e-03  9.74659e-03  1.25855e-02
       O  5.48154e-03  2.85557e-02  1.07468e-03
       H  4.04606e-04 -3.44013e-02  3.08297e-03
       H -5.05107e-03  6.87879e-03 -1.81255e-03
       O  1.16386e-02  1.92186e-02 -5.42467e-03
       H -1.94316e-04  1.21893e-02  8.81022e-04
       H -1.30810e-02 -2.85711e-02  1.22235e-02
       O  1.46224e-02  3.01592e-02 -2.70158e-02
       H -2.21765e-02 -3.76257e-02 -1.02049e-02
       H  1.17906e-02  6.46067e-04  4.60679e-02
       O  2.38955e-03  1.60365e-02 -3.13931e-02
       H -1.06613e-02  4.10505e-03 -1.77966e-02
       H  9.99580e-03 -2.72917e-02  4.82249e-02
       O  2.11269e-02  8.08194e-03 -4.93434e-02
       H -1.87648e-02  4.02040e-03  4.58888e-02
       H -1.63508e-03 -5.88998e-03  2.36735e-03
       O -2.33024e-02 -4.60255e-03 -4.46297e-03
       H  1.00412e-02  1.11986e-03  2.10556e-03
       H  5.11711e-03 -6.08713e-04 -1.04342e-03
       O -6.28161e-03 -4.29302e-03  2.61376e-03
       H -1.40582e-02 -3.87807e-03  5.10718e-03
       H  1.47314e-02  8.00584e-03 -4.44023e-03
       O -4.62636e-03  1.30636e-02 -1.58761e-03
       H  6.61599e-04 -2.17298e-03 -2.17211e-03
       H  6.73093e-03 -8.51309e-03  3.96429e-03
       O  1.35112e-02  1.62139e-02  5.44635e-03
       H -3.51012e-03 -8.04250e-03 -8.09496e-03
       H -9.90101e-03  5.56952e-03 -8.04140e-03
       O -1.40955e-02 -8.24572e-03  1.93117e-02
       H  7.28959e-03  3.26639e-03  1.07354e-02
       H -1.70683e-03  8.33395e-04 -2.46815e-02
       O  1.94649e-02 -2.37357e-03  3.54606e-03
       H -2.67191e-02 -1.75523e-02  5.26558e-03
       H -8.47326e-04  1.26958e-02 -6.24829e-03
       O  8.92275e-03  1.92104e-02 -2.77116e-02
       H -9.86495e-03 -2.27919e-02  4.23201e-03
       H  1.51166e-04 -1.19556e-03  2.77070e-02
       O -6.26853e-02 -5.67833e-03  3.60973e-02
       H  1.97718e-02  6.32647e-03 -1.14739e-02
       H  3.96740e-02  9.70707e-03 -1.65273e-02
       O -1.23841e-03 -1.50643e-02 -2.30681e-02
       H  1.45695e-02  4.67275e-03  7.76903e-03
       H -9.85294e-03  5.18052e-03  1.13709e-02
       O  2.09471e-02  1.27650e-03 -5.57119e-03
       H -5.37629e-04 -9.39810e-04 -2.18219e-03
       H -6.40476e-03 -1.34632e-03  1.35309e-02
       O  1.38305e-02  3.36487e-03 -2.65514e-02
       H -1.61947e-02 -1.92437e-03  1.29359e-02
       H  1.10613e-02 -8.59388e-03  1.29451e-02
       O  8.83972e-03 -9.78878e-03 -1.17482e-02
       H  9.29336e-03  1.05279e-02 -5.37678e-03
       H -1.91801e-02  3.46219e-03  1.33921e-02
       O -2.18010e-02  2.47512e-02  1.61711e-02
       H  1.42899e-02 -1.79199e-02 -1.57039e-02
       H  1.25705e-02 -6.23772e-03 -1.50849e-04
       O -2.01285e-02 -2.57678e-02  1.52388e-02
       H  1.88811e-02  1.80285e-02 -7.21075e-03
       H  3.63636e-03  1.07338e-02 -6.71935e-03
       O -5.05254e-03  1.99887e-02 -2.83007e-02
       H -8.05693e-05 -7.34403e-03  1.44515e-02
       H  3.85137e-03 -5.94636e-03  9.50410e-03
       O -3.29787e-04 -2.26794e-02 -2.46037e-02
       H -9.67286e-04  1.01430e-02  7.89459e-03
       H  6.70688e-04  5.99321e-03  8.89823e-03
       O -2.95315e-02 -1.35502e-02  3.95254e-03
       H  2.84775e-02  7.97774e-03  7.13695e-03
       H  9.31462e-04  7.04660e-03 -1.61170e-02
       O -7.72900e-03  2.03493e-02 -4.15540e-02
       H  1.89548e-02 -2.24873e-02  1.37064e-02
       H -8.70155e-03  1.05396e-03  2.28405e-02
       O -7.48504e-03 -5.41709e-03  6.82058e-03
       H  2.36177e-03  8.80717e-03 -4.19446e-03
       H  3.62522e-03  5.54705e-03  7.26110e-04
       O -2.67989e-02 -1.22379e-02  2.49555e-03
       H  9.90257e-03  2.30069e-03  6.94655e-03
       H  1.35852e-02  6.88004e-03 -5.13850e-03
       O  4.51950e-03  5.65473e-03  7.25554e-03
       H -4.59515e-04 -2.63080e-03 -3.12534e-03
       H -5.91749e-03 -3.95930e-03 -2.02252e-03
       O -1.98669e-04  2.02574e-03 -3.24331e-03
       H -4.78987e-04 -8.46973e-03 -3.88009e-03
       H  1.48087e-03  8.03513e-03  3.45928e-03
       O  2.40092e-02 -1.03276e-02 -4.67528e-03
       H -8.15983e-03  7.92987e-03  6.35090e-03
       H -2.17015e-02  3.90970e-03 -3.17469e-03
       O -1.56285e-02 -4.52948e-02 -2.21722e-02
       H  5.68482e-03  2.42861e-02  1.07138e-02
       H  8.38782e-03  2.04344e-02  8.88801e-03
       O  2.20142e-02  1.41096e-02  1.04595e-02
       H -1.40643e-02 -6.55061e-03 -4.41818e-03
       H -8.49040e-03 -4.53330e-03 -2.10587e-03
       O -2.43261e-02 -5.28061e-03  2.34281e-03
       H  9.09579e-03  5.11233e-03 -5.97388e-03
       H  8.71884e-03 -1.30488e-03  3.27365e-03
       O  1.07780e-02 -1.73786e-02  4.75371e-03
       H -1.54536e-03 -4.49390e-03 -6.71618e-03
       H -1.49540e-02  1.80066e-02  2.60343e-04
       O  1.35296e-02 -1.43658e-03 -1.84970e-02
       H -1.09307e-02  3.44284e-03  9.01604e-03
       H -8.10580e-03  4.15830e-04  3.34391e-03
       O -8.38387e-03  9.24783e-03  3.75859e-02
       H  3.32233e-02  1.39045e-02 -1.38358e-02
       H -1.99084e-02 -2.19963e-02 -2.28195e-02
       O  4.02663e-03  7.45900e-03  1.25969e-02
       H -6.26928e-03 -5.89540e-03 -8.83609e-03
       H  6.08646e-03 -6.20329e-04 -6.28032e-03
       O -2.34083e-02  2.43106e-02 -1.10353e-02
       H  5.51578e-03 -4.07414e-03  1.16899e-02
       H  1.10108e-02 -4.74561e-03 -1.62581e-03
       O  1.09783e-02  2.46918e-02  5.16184e-03
       H -1.55703e-02 -1.15244e-02  6.60608e-03
       H  7.86166e-04 -1.65427e-02 -1.44233e-02
       O  1.00461e-02 -1.61839e-02  3.25483e-02
       H -2.64396e-03  1.21823e-02 -1.96165e-02
       H  1.79946e-03  4.40756e-03 -4.90301e-03
       O  2.48380e-03  7.32280e-03 -1.93947e-02
       H  1.45394e-02  7.68045e-04  6.85473e-04
       H -1.11298e-02 -1.38287e-02  1.78740e-02
       O  7.32742e-03  9.48072e-03  6.00361e-03
       H -6.02734e-03 -7.25210e-03 -2.60377e-03
       H -2.86469e-03 -4.52488e-03  1.20987e-04
       O -1.72675e-02 -2.33738e-02  1.18018e-02
       H  1.12898e-02  9.35298e-03 -1.12142e-02
       H  8.98736e-03  1.11632e-02 -9.36468e-03
       O  2.23672e-02 -7.74849e-03  7.51672e-03
       H -1.35000e-02  7.20998e-03 -1.25838e-02
       H -4.82573e-03 -1.45814e-03 -3.58500e-03
       O  1.81218e-02  4.96519e-03 -2.04532e-02
       H -2.44928e-02 -2.15253e-03  1.04335e-02
       H  2.15566e-03 -1.45459e-03  1.15251e-02
       O -5.68483e-03  5.49951e-03  2.38951e-02
       H -3.46528e-03  8.47266e-04 -6.73212e-03
       H  5.49413e-03 -6.55501e-03 -1.71247e-02
       O -2.07851e-02 -1.84113e-03 -2.28511e-02
       H  6.71074e-03 -1.48209e-02  1.41180e-03
       H  1.47170e-02  1.00899e-02  2.02108e-02
       O -2.82452e-02  1.42051e-02 -9.84309e-05
       H -2.95165e-03 -1.67305e-02 -3.59369e-03
       H  2.72973e-02 -6.54427e-03  4.55640e-03
       O  5.00946e-03  5.64819e-02 -1.50089e-03
       H -1.10798e-02 -8.88201e-03 -6.17781e-03
       H  7.86037e-03 -4.04340e-02  1.44220e-02
       O  1.69565e-02  4.42818e-03 -1.58985e-02
       H -5.03300e-03 -1.15912e-02  8.59852e-03
       H -9.25210e-03  3.63966e-03  9.39554e-03
       O  5.87053e-04  1.17410e-02  4.01978e-02
       H -4.90370e-03 -7.58803e-03 -3.54411e-02
       H  2.42382e-03 -1.15676e-03  1.22322e-03
       O  5.14108e-03 -1.47263e-02  3.56250e-02
       H  2.05019e-02  7.23874e-03 -3.98450e-03
       H -2.34444e-02  1.32378e-02 -4.24922e-02
       O  4.15501e-03 -2.66328e-02  1.31243e-02
       H -9.37382e-03  1.02535e-02 -1.08063e-02
       H  7.65446e-03  1.76822e-02 -2.12097e-03
       O -2.26556e-02  3.17626e-02  1.89369e-02
       H  1.07225e-02 -2.54040e-02 -1.45828e-02
       H  9.07188e-03 -4.00668e-03  9.55903e-04
       O  1.38768e-02  2.23986e-02  1.95356e-02
       H -7.59763e-03 -1.95116e-02 -2.03564e-02
       H -1.03692e-02 -9.30780e-03 -2.38744e-04
       O  6.92534e-03 -1.79801e-02  8.62171e-04
       H  8.75396e-03  1.69726e-02 -5.41583e-03
       H -1.67461e-02  1.00085e-02 -3.25196e-03
       O -2.77979e-02 -2.63383e-03 -5.36067e-03
       H -1.29346e-03 -4.33732e-03 -5.88514e-03
       H  3.34573e-02  1.32877e-02  1.90552e-02
       O  1.86192e-02 -6.52140e-03 -3.78267e-03
       H  3.76777e-03  7.14001e-03 -6.92295e-03
       H -1.55000e-02 -6.17727e-03  6.97874e-03
       O  4.01839e-04 -3.94238e-03  9.44357e-04
       H  7.02645e-04  1.39627e-03  5.52447e-03
       H -4.59745e-03 -2.11562e-03  2.83541e-03
       O  1.55706e-02 -1.36340e-02  5.45311e-03
       H -9.64917e-03  1.97980e-03  5.98878e-04
       H -2.96705e-03  7.89700e-03  5.30744e-03
       O  6.27195e-03 -7.52398e-03 -2.22267e-02
       H  1.13516e-02 -1.37142e-02  9.76950e-03
       H -1.63846e-02  3.23769e-02  1.09684e-02
       O  2.85544e-03  8.24712e-03  2.07759e-02
       H  1.07882e-03 -9.02189e-03  4.27652e-03
       H -1.12606e-02 -1.51231e-03 -1.68708e-02
       O -3.05934e-04 -9.84174e-03 -2.33453e-02
       H -5.99938e-03 -3.17281e-03 -4.14253e-04
       H -3.06822e-04  1.27185e-02  1.78416e-02
       O  1.95435e-03  7.35275e-03 -1.52505e-02
       H -2.16131e-03  2.12405e-03  2.33876e-03
       H  1.46686e-03 -8.83484e-03  1.38572e-02
       O  4.01198e-02  2.13303e-02 -1.66735e-02
       H -3.18501e-02 -3.16302e-02  1.02648e-02
       H -9.28542e-03  6.09555e-03  5.08888e-03
       O -1.25047e-02  1.68681e-02  3.11422e-02
       H -2.58341e-04 -1.56155e-02 -1.60173e-02
       H  1.00079e-02  1.55272e-03 -1.28161e-02
       O  1.78468e-02 -1.24838e-02  3.22945e-03
       H -1.79620e-02 -1.33903e-03 -2.68512e-03
       H  1.59681e-03  9.54447e-03  3.35862e-03
       O  2.57710e-02 -1.87436e-03  1.78593e-02
       H -1.63626e-03 -7.85915e-03 -2.06514e-02
       H -2.77945e-02  6.80102e-03  6.53375e-04
       O -1.64520e-03 -9.63773e-03  5.61852e-03
       H  3.59970e-03  1.27338e-02 -1.00593e-02
       H -7.35216e-04  5.58201e-03  4.12944e-03
       O -1.12716e-03 -3.30062e-02  5.29296e-03
       H -4.51253e-03  2.11850e-02 -1.76678e-03
       H  8.75567e-03  5.66926e-03 -3.21610e-03
       O -3.68924e-02 -1.64591e-03 -2.13486e-02
       H -3.93497e-04 -1.12441e-03  1.98786e-02
       H  3.99904e-02  1.66633e-03  9.26702e-03
       O -1.49351e-04  1.03222e-02  3.33091e-03
       H  6.24234e-04  5.44344e-04  1.23036e-03
       H -1.47498e-03 -9.15046e-03 -1.70441e-03
       O  1.37616e-02  2.23243e-02  1.39055e-02
       H -8.59706e-03 -1.40041e-02  1.65980e-03
       H -6.19568e-03 -9.26529e-03 -1.19433e-02
       O -4.13353e-02  4.62532e-03  7.64372e-03
       H  2.97291e-02 -1.78710e-02 -1.37729e-02
       H  1.15922e-02  1.10046e-02  1.87502e-03
       O  1.24726e-02 -1.26177e-02 -5.01828e-02
       H -2.09872e-02  2.79601e-02  3.49792e-02
       H  2.09562e-03 -1.22300e-02  2.32126e-02
       O  3.43150e-03  5.25956e-03  9.72591e-03
       H -3.86728e-03  5.71445e-03 -7.73037e-03
       H -2.54562e-03 -5.64887e-03 -7.45456e-03
       O -2.55976e-02 -1.90018e-03 -5.02150e-03
       H  2.24801e-02  1.22055e-03  1.43875e-03