4
# CELL(abcABC): 1000.00000  1000.00000  1000.00000    90.00000    90.00000    90.00000  Step:         793  Bead:       0 positions{angstrom}  cell{angstrom}
       O -3.13826e+00  1.07373e+00  3.45931e-01
       H -3.74907e+00  5.34368e-01 -1.60395e-01
       H -2.35888e+00  5.74526e-01  4.13455e-01
       H -3.46326e+00  1.91809e+00  9.41507e-01
