4
# CELL(abcABC): 1000.00000  1000.00000  1000.00000    90.00000    90.00000    90.00000  Step:           0  Bead:       0 positions{angstrom}  cell{angstrom}
       O -3.14007e+00  1.07022e+00  3.53411e-01
       H -3.84651e+00  5.42283e-01 -6.83693e-02
       H -2.36806e+00  5.37156e-01  4.42912e-01
       H -3.32791e+00  2.00323e+00  7.01290e-01
4
# CELL(abcABC): 1000.00000  1000.00000  1000.00000    90.00000    90.00000    90.00000  Step:           1  Bead:       0 positions{angstrom}  cell{angstrom}
       O -3.13853e+00  1.07039e+00  3.52799e-01
       H -3.85489e+00  5.36279e-01 -6.34550e-02
       H -2.36723e+00  5.36523e-01  4.44039e-01
       H -3.34484e+00  2.00722e+00  7.04964e-01
4
# CELL(abcABC): 1000.00000  1000.00000  1000.00000    90.00000    90.00000    90.00000  Step:           2  Bead:       0 positions{angstrom}  cell{angstrom}
       O -3.13740e+00  1.07029e+00  3.52033e-01
       H -3.86009e+00  5.33271e-01 -5.63551e-02
       H -2.36348e+00  5.35960e-01  4.45141e-01
       H -3.36123e+00  2.01229e+00  7.08917e-01
4
# CELL(abcABC): 1000.00000  1000.00000  1000.00000    90.00000    90.00000    90.00000  Step:           3  Bead:       0 positions{angstrom}  cell{angstrom}
       O -3.13658e+00  1.07001e+00  3.51058e-01
       H -3.86111e+00  5.31907e-01 -4.57198e-02
       H -2.35905e+00  5.36833e-01  4.46860e-01
       H -3.37779e+00  2.01726e+00  7.12040e-01
4
# CELL(abcABC): 1000.00000  1000.00000  1000.00000    90.00000    90.00000    90.00000  Step:           4  Bead:       0 positions{angstrom}  cell{angstrom}
       O -3.13608e+00  1.06959e+00  3.50062e-01
       H -3.85887e+00  5.31828e-01 -3.46151e-02
       H -2.35341e+00  5.38973e-01  4.48126e-01
       H -3.39356e+00  2.02179e+00  7.15487e-01
4
# CELL(abcABC): 1000.00000  1000.00000  1000.00000    90.00000    90.00000    90.00000  Step:           5  Bead:       0 positions{angstrom}  cell{angstrom}
       O -3.13574e+00  1.06893e+00  3.49046e-01
       H -3.85439e+00  5.33677e-01 -2.25850e-02
       H -2.34829e+00  5.43159e-01  4.50384e-01
       H -3.40850e+00  2.02625e+00  7.17320e-01
4
# CELL(abcABC): 1000.00000  1000.00000  1000.00000    90.00000    90.00000    90.00000  Step:           6  Bead:       0 positions{angstrom}  cell{angstrom}
       O -3.13549e+00  1.06829e+00  3.48056e-01
       H -3.84760e+00  5.36888e-01 -1.08313e-02
       H -2.34395e+00  5.46743e-01  4.51623e-01
       H -3.42356e+00  2.02975e+00  7.20046e-01
4
# CELL(abcABC): 1000.00000  1000.00000  1000.00000    90.00000    90.00000    90.00000  Step:           7  Bead:       0 positions{angstrom}  cell{angstrom}
       O -3.13542e+00  1.06755e+00  3.46913e-01
       H -3.83819e+00  5.40217e-01  2.23185e-03
       H -2.34016e+00  5.50959e-01  4.53627e-01
       H -3.43798e+00  2.03384e+00  7.23123e-01
4
# CELL(abcABC): 1000.00000  1000.00000  1000.00000    90.00000    90.00000    90.00000  Step:           8  Bead:       0 positions{angstrom}  cell{angstrom}
       O -3.13546e+00  1.06694e+00  3.45917e-01
       H -3.82803e+00  5.42425e-01  1.38688e-02
       H -2.33589e+00  5.55164e-01  4.54969e-01
       H -3.45175e+00  2.03716e+00  7.25945e-01
4
# CELL(abcABC): 1000.00000  1000.00000  1000.00000    90.00000    90.00000    90.00000  Step:           9  Bead:       0 positions{angstrom}  cell{angstrom}
       O -3.13548e+00  1.06661e+00  3.44939e-01
       H -3.81952e+00  5.41372e-01  2.50713e-02
       H -2.33124e+00  5.60363e-01  4.56881e-01
       H -3.46461e+00  2.03819e+00  7.28355e-01
4
# CELL(abcABC): 1000.00000  1000.00000  1000.00000    90.00000    90.00000    90.00000  Step:          10  Bead:       0 positions{angstrom}  cell{angstrom}
       O -3.13535e+00  1.06649e+00  3.44269e-01
       H -3.81369e+00  5.36826e-01  3.33463e-02
       H -2.32723e+00  5.67062e-01  4.58019e-01
       H -3.47642e+00  2.03801e+00  7.29585e-01
4
# CELL(abcABC): 1000.00000  1000.00000  1000.00000    90.00000    90.00000    90.00000  Step:          11  Bead:       0 positions{angstrom}  cell{angstrom}
       O -3.13505e+00  1.06669e+00  3.43946e-01
       H -3.81086e+00  5.29023e-01  3.78647e-02
       H -2.32528e+00  5.74198e-01  4.58694e-01
       H -3.48597e+00  2.03555e+00  7.29516e-01
4
# CELL(abcABC): 1000.00000  1000.00000  1000.00000    90.00000    90.00000    90.00000  Step:          12  Bead:       0 positions{angstrom}  cell{angstrom}
       O -3.13475e+00  1.06725e+00  3.43899e-01
       H -3.80969e+00  5.17246e-01  3.96840e-02
       H -2.32399e+00  5.80634e-01  4.58347e-01
       H -3.49319e+00  2.03186e+00  7.28790e-01
4
# CELL(abcABC): 1000.00000  1000.00000  1000.00000    90.00000    90.00000    90.00000  Step:          13  Bead:       0 positions{angstrom}  cell{angstrom}
       O -3.13447e+00  1.06812e+00  3.44006e-01
       H -3.81053e+00  5.02993e-01  3.97720e-02
       H -2.32170e+00  5.87289e-01  4.58038e-01
       H -3.49910e+00  2.02579e+00  7.27315e-01
4
# CELL(abcABC): 1000.00000  1000.00000  1000.00000    90.00000    90.00000    90.00000  Step:          14  Bead:       0 positions{angstrom}  cell{angstrom}
       O -3.13430e+00  1.06916e+00  3.44201e-01
       H -3.81089e+00  4.86517e-01  3.89352e-02
       H -2.31901e+00  5.94855e-01  4.57784e-01
       H -3.50418e+00  2.01814e+00  7.25301e-01
4
# CELL(abcABC): 1000.00000  1000.00000  1000.00000    90.00000    90.00000    90.00000  Step:          15  Bead:       0 positions{angstrom}  cell{angstrom}
       O -3.13419e+00  1.07020e+00  3.44251e-01
       H -3.81288e+00  4.68820e-01  3.95880e-02
       H -2.31688e+00  6.03263e-01  4.57872e-01
       H -3.50602e+00  2.01093e+00  7.23766e-01
4
# CELL(abcABC): 1000.00000  1000.00000  1000.00000    90.00000    90.00000    90.00000  Step:          16  Bead:       0 positions{angstrom}  cell{angstrom}
       O -3.13434e+00  1.07117e+00  3.44314e-01
       H -3.81231e+00  4.51334e-01  3.99176e-02
       H -2.31468e+00  6.13045e-01  4.58242e-01
       H -3.50642e+00  2.00315e+00  7.22078e-01
4
# CELL(abcABC): 1000.00000  1000.00000  1000.00000    90.00000    90.00000    90.00000  Step:          17  Bead:       0 positions{angstrom}  cell{angstrom}
       O -3.13467e+00  1.07206e+00  3.44338e-01
       H -3.80863e+00  4.35962e-01  4.09941e-02
       H -2.31302e+00  6.23768e-01  4.57923e-01
       H -3.50650e+00  1.99365e+00  7.20930e-01
4
# CELL(abcABC): 1000.00000  1000.00000  1000.00000    90.00000    90.00000    90.00000  Step:          18  Bead:       0 positions{angstrom}  cell{angstrom}
       O -3.13527e+00  1.07273e+00  3.44296e-01
       H -3.80312e+00  4.23809e-01  4.30773e-02
       H -2.30943e+00  6.34661e-01  4.57843e-01
       H -3.50609e+00  1.98442e+00  7.19596e-01
4
# CELL(abcABC): 1000.00000  1000.00000  1000.00000    90.00000    90.00000    90.00000  Step:          19  Bead:       0 positions{angstrom}  cell{angstrom}
       O -3.13627e+00  1.07325e+00  3.44159e-01
       H -3.79418e+00  4.14325e-01  4.65668e-02
       H -2.30567e+00  6.45118e-01  4.57402e-01
       H -3.50301e+00  1.97515e+00  7.18731e-01
4
# CELL(abcABC): 1000.00000  1000.00000  1000.00000    90.00000    90.00000    90.00000  Step:          20  Bead:       0 positions{angstrom}  cell{angstrom}
       O -3.13753e+00  1.07361e+00  3.44003e-01
       H -3.78239e+00  4.08115e-01  4.95204e-02
       H -2.30187e+00  6.55818e-01  4.57482e-01
       H -3.49852e+00  1.96492e+00  7.18171e-01
4
# CELL(abcABC): 1000.00000  1000.00000  1000.00000    90.00000    90.00000    90.00000  Step:          21  Bead:       0 positions{angstrom}  cell{angstrom}
       O -3.13910e+00  1.07376e+00  3.43858e-01
       H -3.76881e+00  4.03910e-01  5.18963e-02
       H -2.29547e+00  6.67247e-01  4.58761e-01
       H -3.49357e+00  1.95529e+00  7.16808e-01
4
# CELL(abcABC): 1000.00000  1000.00000  1000.00000    90.00000    90.00000    90.00000  Step:          22  Bead:       0 positions{angstrom}  cell{angstrom}
       O -3.14089e+00  1.07363e+00  3.43775e-01
       H -3.75494e+00  4.00753e-01  5.54730e-02
       H -2.28619e+00  6.79267e-01  4.58594e-01
       H -3.48837e+00  1.94854e+00  7.14727e-01
4
# CELL(abcABC): 1000.00000  1000.00000  1000.00000    90.00000    90.00000    90.00000  Step:          23  Bead:       0 positions{angstrom}  cell{angstrom}
       O -3.14275e+00  1.07329e+00  3.43877e-01
       H -3.74043e+00  3.99277e-01  5.83635e-02
       H -2.27580e+00  6.92385e-01  4.58811e-01
       H -3.48369e+00  1.94233e+00  7.09996e-01
4
# CELL(abcABC): 1000.00000  1000.00000  1000.00000    90.00000    90.00000    90.00000  Step:          24  Bead:       0 positions{angstrom}  cell{angstrom}
       O -3.14456e+00  1.07267e+00  3.44018e-01
       H -3.72589e+00  3.96966e-01  6.05987e-02
       H -2.26552e+00  7.07432e-01  4.59109e-01
       H -3.47985e+00  1.93940e+00  7.05222e-01
4
# CELL(abcABC): 1000.00000  1000.00000  1000.00000    90.00000    90.00000    90.00000  Step:          25  Bead:       0 positions{angstrom}  cell{angstrom}
       O -3.14612e+00  1.07200e+00  3.44129e-01
       H -3.71292e+00  3.92809e-01  6.26395e-02
       H -2.25671e+00  7.22826e-01  4.59285e-01
       H -3.47685e+00  1.93881e+00  7.01250e-01
4
# CELL(abcABC): 1000.00000  1000.00000  1000.00000    90.00000    90.00000    90.00000  Step:          26  Bead:       0 positions{angstrom}  cell{angstrom}
       O -3.14737e+00  1.07131e+00  3.44294e-01
       H -3.70219e+00  3.86335e-01  6.26728e-02
       H -2.24922e+00  7.38935e-01  4.58852e-01
       H -3.47523e+00  1.94002e+00  6.99025e-01
4
# CELL(abcABC): 1000.00000  1000.00000  1000.00000    90.00000    90.00000    90.00000  Step:          27  Bead:       0 positions{angstrom}  cell{angstrom}
       O -3.14837e+00  1.07055e+00  3.44576e-01
       H -3.69414e+00  3.78783e-01  6.06116e-02
       H -2.24365e+00  7.55112e-01  4.57593e-01
       H -3.47290e+00  1.94349e+00  6.97862e-01
4
# CELL(abcABC): 1000.00000  1000.00000  1000.00000    90.00000    90.00000    90.00000  Step:          28  Bead:       0 positions{angstrom}  cell{angstrom}
       O -3.14897e+00  1.06975e+00  3.44891e-01
       H -3.68957e+00  3.67706e-01  5.70001e-02
       H -2.23954e+00  7.72137e-01  4.56043e-01
       H -3.47203e+00  1.95029e+00  6.98030e-01
4
# CELL(abcABC): 1000.00000  1000.00000  1000.00000    90.00000    90.00000    90.00000  Step:          29  Bead:       0 positions{angstrom}  cell{angstrom}
       O -3.14931e+00  1.06885e+00  3.45306e-01
       H -3.68610e+00  3.55624e-01  5.08647e-02
       H -2.23831e+00  7.89583e-01  4.53911e-01
       H -3.47148e+00  1.95917e+00  6.99715e-01
4
# CELL(abcABC): 1000.00000  1000.00000  1000.00000    90.00000    90.00000    90.00000  Step:          30  Bead:       0 positions{angstrom}  cell{angstrom}
       O -3.14943e+00  1.06778e+00  3.45753e-01
       H -3.68319e+00  3.44157e-01  4.47798e-02
       H -2.23882e+00  8.07103e-01  4.51627e-01
       H -3.47188e+00  1.97020e+00  7.00982e-01
4
# CELL(abcABC): 1000.00000  1000.00000  1000.00000    90.00000    90.00000    90.00000  Step:          31  Bead:       0 positions{angstrom}  cell{angstrom}
       O -3.14958e+00  1.06651e+00  3.46315e-01
       H -3.67891e+00  3.33335e-01  3.85734e-02
       H -2.23954e+00  8.25470e-01  4.48170e-01
       H -3.47300e+00  1.98276e+00  7.01735e-01
4
# CELL(abcABC): 1000.00000  1000.00000  1000.00000    90.00000    90.00000    90.00000  Step:          32  Bead:       0 positions{angstrom}  cell{angstrom}
       O -3.14970e+00  1.06527e+00  3.46743e-01
       H -3.67513e+00  3.21790e-01  3.30005e-02
       H -2.23977e+00  8.44456e-01  4.45418e-01
       H -3.47465e+00  1.99493e+00  7.03260e-01
4
# CELL(abcABC): 1000.00000  1000.00000  1000.00000    90.00000    90.00000    90.00000  Step:          33  Bead:       0 positions{angstrom}  cell{angstrom}
       O -3.14989e+00  1.06413e+00  3.47099e-01
       H -3.67087e+00  3.11351e-01  2.90232e-02
       H -2.23897e+00  8.61457e-01  4.42683e-01
       H -3.47676e+00  2.00660e+00  7.04322e-01
4
# CELL(abcABC): 1000.00000  1000.00000  1000.00000    90.00000    90.00000    90.00000  Step:          34  Bead:       0 positions{angstrom}  cell{angstrom}
       O -3.15008e+00  1.06300e+00  3.47586e-01
       H -3.66473e+00  3.02983e-01  2.54848e-02
       H -2.23887e+00  8.76690e-01  4.39822e-01
       H -3.47994e+00  2.01766e+00  7.02983e-01
4
# CELL(abcABC): 1000.00000  1000.00000  1000.00000    90.00000    90.00000    90.00000  Step:          35  Bead:       0 positions{angstrom}  cell{angstrom}
       O -3.15050e+00  1.06185e+00  3.48117e-01
       H -3.65521e+00  2.97008e-01  2.18948e-02
       H -2.23841e+00  8.91360e-01  4.37190e-01
       H -3.48335e+00  2.02720e+00  7.00782e-01
4
# CELL(abcABC): 1000.00000  1000.00000  1000.00000    90.00000    90.00000    90.00000  Step:          36  Bead:       0 positions{angstrom}  cell{angstrom}
       O -3.15115e+00  1.06066e+00  3.48721e-01
       H -3.64380e+00  2.93438e-01  1.84143e-02
       H -2.23587e+00  9.05701e-01  4.33276e-01
       H -3.48686e+00  2.03522e+00  6.98585e-01
4
# CELL(abcABC): 1000.00000  1000.00000  1000.00000    90.00000    90.00000    90.00000  Step:          37  Bead:       0 positions{angstrom}  cell{angstrom}
       O -3.15207e+00  1.05963e+00  3.49286e-01
       H -3.63035e+00  2.92740e-01  1.71616e-02
       H -2.23089e+00  9.17777e-01  4.28376e-01
       H -3.49073e+00  2.04028e+00  6.95775e-01
4
# CELL(abcABC): 1000.00000  1000.00000  1000.00000    90.00000    90.00000    90.00000  Step:          38  Bead:       0 positions{angstrom}  cell{angstrom}
       O -3.15297e+00  1.05874e+00  3.50109e-01
       H -3.61700e+00  2.93166e-01  1.48815e-02
       H -2.22434e+00  9.27128e-01  4.22618e-01
       H -3.49636e+00  2.04467e+00  6.90751e-01
4
# CELL(abcABC): 1000.00000  1000.00000  1000.00000    90.00000    90.00000    90.00000  Step:          39  Bead:       0 positions{angstrom}  cell{angstrom}
       O -3.15410e+00  1.05816e+00  3.50942e-01
       H -3.60255e+00  2.93590e-01  1.29498e-02
       H -2.21658e+00  9.33791e-01  4.17131e-01
       H -3.50071e+00  2.04667e+00  6.84939e-01
4
# CELL(abcABC): 1000.00000  1000.00000  1000.00000    90.00000    90.00000    90.00000  Step:          40  Bead:       0 positions{angstrom}  cell{angstrom}
       O -3.15522e+00  1.05778e+00  3.51720e-01
       H -3.58830e+00  2.93948e-01  1.14796e-02
       H -2.20874e+00  9.39242e-01  4.12651e-01
       H -3.50490e+00  2.04689e+00  6.78552e-01
4
# CELL(abcABC): 1000.00000  1000.00000  1000.00000    90.00000    90.00000    90.00000  Step:          41  Bead:       0 positions{angstrom}  cell{angstrom}
       O -3.15620e+00  1.05765e+00  3.52581e-01
       H -3.57519e+00  2.94040e-01  8.74897e-03
       H -2.20149e+00  9.43913e-01  4.07917e-01
       H -3.50973e+00  2.04427e+00  6.72340e-01
4
# CELL(abcABC): 1000.00000  1000.00000  1000.00000    90.00000    90.00000    90.00000  Step:          42  Bead:       0 positions{angstrom}  cell{angstrom}
       O -3.15706e+00  1.05794e+00  3.53637e-01
       H -3.56193e+00  2.90663e-01  4.58290e-03
       H -2.19606e+00  9.47670e-01  4.03060e-01
       H -3.51488e+00  2.03928e+00  6.64610e-01
4
# CELL(abcABC): 1000.00000  1000.00000  1000.00000    90.00000    90.00000    90.00000  Step:          43  Bead:       0 positions{angstrom}  cell{angstrom}
       O -3.15760e+00  1.05845e+00  3.54839e-01
       H -3.55043e+00  2.86369e-01 -1.10030e-03
       H -2.19322e+00  9.52018e-01  3.98063e-01
       H -3.52060e+00  2.03117e+00  6.56207e-01
4
# CELL(abcABC): 1000.00000  1000.00000  1000.00000    90.00000    90.00000    90.00000  Step:          44  Bead:       0 positions{angstrom}  cell{angstrom}
       O -3.15779e+00  1.05923e+00  3.56154e-01
       H -3.54022e+00  2.79907e-01 -8.46499e-03
       H -2.19328e+00  9.55403e-01  3.92355e-01
       H -3.52764e+00  2.02184e+00  6.48409e-01
4
# CELL(abcABC): 1000.00000  1000.00000  1000.00000    90.00000    90.00000    90.00000  Step:          45  Bead:       0 positions{angstrom}  cell{angstrom}
       O -3.15758e+00  1.06020e+00  3.57605e-01
       H -3.53186e+00  2.72785e-01 -1.72300e-02
       H -2.19555e+00  9.57775e-01  3.85745e-01
       H -3.53712e+00  2.01113e+00  6.40743e-01
4
# CELL(abcABC): 1000.00000  1000.00000  1000.00000    90.00000    90.00000    90.00000  Step:          46  Bead:       0 positions{angstrom}  cell{angstrom}
       O -3.15714e+00  1.06127e+00  3.59120e-01
       H -3.52452e+00  2.66465e-01 -2.67031e-02
       H -2.20038e+00  9.59070e-01  3.78710e-01
       H -3.54665e+00  1.99918e+00  6.33197e-01
4
# CELL(abcABC): 1000.00000  1000.00000  1000.00000    90.00000    90.00000    90.00000  Step:          47  Bead:       0 positions{angstrom}  cell{angstrom}
       O -3.15646e+00  1.06220e+00  3.60743e-01
       H -3.51776e+00  2.61043e-01 -3.57171e-02
       H -2.20678e+00  9.60500e-01  3.70994e-01
       H -3.55777e+00  1.98841e+00  6.24174e-01
4
# CELL(abcABC): 1000.00000  1000.00000  1000.00000    90.00000    90.00000    90.00000  Step:          48  Bead:       0 positions{angstrom}  cell{angstrom}
       O -3.15563e+00  1.06310e+00  3.62292e-01
       H -3.51082e+00  2.56586e-01 -4.37763e-02
       H -2.21387e+00  9.62562e-01  3.62843e-01
       H -3.57077e+00  1.97653e+00  6.15788e-01
4
# CELL(abcABC): 1000.00000  1000.00000  1000.00000    90.00000    90.00000    90.00000  Step:          49  Bead:       0 positions{angstrom}  cell{angstrom}
       O -3.15479e+00  1.06381e+00  3.63624e-01
       H -3.50395e+00  2.54297e-01 -5.02145e-02
       H -2.21929e+00  9.64494e-01  3.55215e-01
       H -3.58554e+00  1.96570e+00  6.08722e-01
4
# CELL(abcABC): 1000.00000  1000.00000  1000.00000    90.00000    90.00000    90.00000  Step:          50  Bead:       0 positions{angstrom}  cell{angstrom}
       O -3.15379e+00  1.06434e+00  3.64919e-01
       H -3.49749e+00  2.55105e-01 -5.56528e-02
       H -2.22500e+00  9.65971e-01  3.48154e-01
       H -3.60219e+00  1.95500e+00  6.00653e-01
4
# CELL(abcABC): 1000.00000  1000.00000  1000.00000    90.00000    90.00000    90.00000  Step:          51  Bead:       0 positions{angstrom}  cell{angstrom}
       O -3.15286e+00  1.06459e+00  3.66078e-01
       H -3.49159e+00  2.58518e-01 -6.01457e-02
       H -2.22862e+00  9.68140e-01  3.41482e-01
       H -3.61920e+00  1.94540e+00  5.93431e-01
4
# CELL(abcABC): 1000.00000  1000.00000  1000.00000    90.00000    90.00000    90.00000  Step:          52  Bead:       0 positions{angstrom}  cell{angstrom}
       O -3.15202e+00  1.06467e+00  3.67192e-01
       H -3.48648e+00  2.64496e-01 -6.32821e-02
       H -2.22940e+00  9.70252e-01  3.34231e-01
       H -3.63698e+00  1.93601e+00  5.86127e-01
4
# CELL(abcABC): 1000.00000  1000.00000  1000.00000    90.00000    90.00000    90.00000  Step:          53  Bead:       0 positions{angstrom}  cell{angstrom}
       O -3.15129e+00  1.06448e+00  3.68124e-01
       H -3.48144e+00  2.73282e-01 -6.61554e-02
       H -2.22717e+00  9.74451e-01  3.28204e-01
       H -3.65573e+00  1.92608e+00  5.80235e-01
4
# CELL(abcABC): 1000.00000  1000.00000  1000.00000    90.00000    90.00000    90.00000  Step:          54  Bead:       0 positions{angstrom}  cell{angstrom}
       O -3.15062e+00  1.06417e+00  3.68653e-01
       H -3.47746e+00  2.82659e-01 -6.70873e-02
       H -2.22228e+00  9.80199e-01  3.23613e-01
       H -3.67519e+00  1.91582e+00  5.77361e-01
4
# CELL(abcABC): 1000.00000  1000.00000  1000.00000    90.00000    90.00000    90.00000  Step:          55  Bead:       0 positions{angstrom}  cell{angstrom}
       O -3.15003e+00  1.06374e+00  3.69021e-01
       H -3.47535e+00  2.92673e-01 -6.67994e-02
       H -2.21488e+00  9.87017e-01  3.20434e-01
       H -3.69413e+00  1.90577e+00  5.74421e-01
4
# CELL(abcABC): 1000.00000  1000.00000  1000.00000    90.00000    90.00000    90.00000  Step:          56  Bead:       0 positions{angstrom}  cell{angstrom}
       O -3.14947e+00  1.06321e+00  3.69282e-01
       H -3.47261e+00  3.02335e-01 -6.59750e-02
       H -2.20625e+00  9.94604e-01  3.16964e-01
       H -3.71439e+00  1.89694e+00  5.72910e-01
4
# CELL(abcABC): 1000.00000  1000.00000  1000.00000    90.00000    90.00000    90.00000  Step:          57  Bead:       0 positions{angstrom}  cell{angstrom}
       O -3.14880e+00  1.06266e+00  3.69425e-01
       H -3.47009e+00  3.10759e-01 -6.52837e-02
       H -2.19844e+00  1.00278e+00  3.15353e-01
       H -3.73542e+00  1.88917e+00  5.71562e-01
4
# CELL(abcABC): 1000.00000  1000.00000  1000.00000    90.00000    90.00000    90.00000  Step:          58  Bead:       0 positions{angstrom}  cell{angstrom}
       O -3.14804e+00  1.06224e+00  3.69539e-01
       H -3.46844e+00  3.15487e-01 -6.59724e-02
       H -2.19093e+00  1.01196e+00  3.15322e-01
       H -3.75656e+00  1.88183e+00  5.70471e-01
4
# CELL(abcABC): 1000.00000  1000.00000  1000.00000    90.00000    90.00000    90.00000  Step:          59  Bead:       0 positions{angstrom}  cell{angstrom}
       O -3.14717e+00  1.06194e+00  3.69531e-01
       H -3.46774e+00  3.16775e-01 -6.80770e-02
       H -2.18453e+00  1.02254e+00  3.17900e-01
       H -3.77752e+00  1.87476e+00  5.70123e-01
4
# CELL(abcABC): 1000.00000  1000.00000  1000.00000    90.00000    90.00000    90.00000  Step:          60  Bead:       0 positions{angstrom}  cell{angstrom}
       O -3.14617e+00  1.06187e+00  3.69572e-01
       H -3.46965e+00  3.14071e-01 -7.16180e-02
       H -2.17933e+00  1.03328e+00  3.19948e-01
       H -3.79671e+00  1.86782e+00  5.70969e-01
4
# CELL(abcABC): 1000.00000  1000.00000  1000.00000    90.00000    90.00000    90.00000  Step:          61  Bead:       0 positions{angstrom}  cell{angstrom}
       O -3.14513e+00  1.06202e+00  3.69628e-01
       H -3.47166e+00  3.07850e-01 -7.65444e-02
       H -2.17526e+00  1.04435e+00  3.21708e-01
       H -3.81523e+00  1.86068e+00  5.73249e-01
4
# CELL(abcABC): 1000.00000  1000.00000  1000.00000    90.00000    90.00000    90.00000  Step:          62  Bead:       0 positions{angstrom}  cell{angstrom}
       O -3.14394e+00  1.06238e+00  3.69771e-01
       H -3.47470e+00  2.98905e-01 -8.24030e-02
       H -2.17505e+00  1.05527e+00  3.23891e-01
       H -3.83136e+00  1.85302e+00  5.74664e-01
4
# CELL(abcABC): 1000.00000  1000.00000  1000.00000    90.00000    90.00000    90.00000  Step:          63  Bead:       0 positions{angstrom}  cell{angstrom}
       O -3.14267e+00  1.06269e+00  3.69670e-01
       H -3.47685e+00  2.90491e-01 -8.74406e-02
       H -2.17773e+00  1.06555e+00  3.26725e-01
       H -3.84660e+00  1.84621e+00  5.78471e-01
4
# CELL(abcABC): 1000.00000  1000.00000  1000.00000    90.00000    90.00000    90.00000  Step:          64  Bead:       0 positions{angstrom}  cell{angstrom}
       O -3.14151e+00  1.06299e+00  3.69402e-01
       H -3.47651e+00  2.83177e-01 -9.04561e-02
       H -2.18215e+00  1.07554e+00  3.30302e-01
       H -3.86093e+00  1.83875e+00  5.82149e-01
4
# CELL(abcABC): 1000.00000  1000.00000  1000.00000    90.00000    90.00000    90.00000  Step:          65  Bead:       0 positions{angstrom}  cell{angstrom}
       O -3.14051e+00  1.06318e+00  3.69010e-01
       H -3.47524e+00  2.78205e-01 -9.30706e-02
       H -2.18726e+00  1.08660e+00  3.34339e-01
       H -3.87297e+00  1.82962e+00  5.86950e-01
4
# CELL(abcABC): 1000.00000  1000.00000  1000.00000    90.00000    90.00000    90.00000  Step:          66  Bead:       0 positions{angstrom}  cell{angstrom}
       O -3.13976e+00  1.06319e+00  3.68367e-01
       H -3.47207e+00  2.78166e-01 -9.32525e-02
       H -2.19274e+00  1.09597e+00  3.39213e-01
       H -3.88260e+00  1.82019e+00  5.92464e-01
4
# CELL(abcABC): 1000.00000  1000.00000  1000.00000    90.00000    90.00000    90.00000  Step:          67  Bead:       0 positions{angstrom}  cell{angstrom}
       O -3.13923e+00  1.06319e+00  3.67572e-01
       H -3.46663e+00  2.79678e-01 -9.26061e-02
       H -2.19735e+00  1.10521e+00  3.45058e-01
       H -3.89188e+00  1.80942e+00  5.98591e-01
4
# CELL(abcABC): 1000.00000  1000.00000  1000.00000    90.00000    90.00000    90.00000  Step:          68  Bead:       0 positions{angstrom}  cell{angstrom}
       O -3.13904e+00  1.06308e+00  3.66797e-01
       H -3.45870e+00  2.82995e-01 -9.08958e-02
       H -2.20052e+00  1.11434e+00  3.49701e-01
       H -3.89953e+00  1.79866e+00  6.04545e-01
4
# CELL(abcABC): 1000.00000  1000.00000  1000.00000    90.00000    90.00000    90.00000  Step:          69  Bead:       0 positions{angstrom}  cell{angstrom}
       O -3.13912e+00  1.06307e+00  3.65750e-01
       H -3.44955e+00  2.86103e-01 -8.66607e-02
       H -2.20283e+00  1.12346e+00  3.55578e-01
       H -3.90511e+00  1.78663e+00  6.11047e-01
4
# CELL(abcABC): 1000.00000  1000.00000  1000.00000    90.00000    90.00000    90.00000  Step:          70  Bead:       0 positions{angstrom}  cell{angstrom}
       O -3.13967e+00  1.06295e+00  3.64656e-01
       H -3.43881e+00  2.90110e-01 -8.30326e-02
       H -2.20313e+00  1.13332e+00  3.61461e-01
       H -3.90691e+00  1.77465e+00  6.18904e-01
4
# CELL(abcABC): 1000.00000  1000.00000  1000.00000    90.00000    90.00000    90.00000  Step:          71  Bead:       0 positions{angstrom}  cell{angstrom}
       O -3.14043e+00  1.06300e+00  3.63625e-01
       H -3.42799e+00  2.92129e-01 -8.11571e-02
       H -2.20223e+00  1.14270e+00  3.67155e-01
       H -3.90658e+00  1.76250e+00  6.27710e-01
4
# CELL(abcABC): 1000.00000  1000.00000  1000.00000    90.00000    90.00000    90.00000  Step:          72  Bead:       0 positions{angstrom}  cell{angstrom}
       O -3.14143e+00  1.06307e+00  3.62571e-01
       H -3.41644e+00  2.92608e-01 -7.98786e-02
       H -2.19991e+00  1.15231e+00  3.73837e-01
       H -3.90457e+00  1.75118e+00  6.36474e-01
4
# CELL(abcABC): 1000.00000  1000.00000  1000.00000    90.00000    90.00000    90.00000  Step:          73  Bead:       0 positions{angstrom}  cell{angstrom}
       O -3.14252e+00  1.06335e+00  3.61641e-01
       H -3.40493e+00  2.90380e-01 -8.00354e-02
       H -2.19706e+00  1.16237e+00  3.80782e-01
       H -3.90167e+00  1.73903e+00  6.44449e-01
4
# CELL(abcABC): 1000.00000  1000.00000  1000.00000    90.00000    90.00000    90.00000  Step:          74  Bead:       0 positions{angstrom}  cell{angstrom}
       O -3.14369e+00  1.06373e+00  3.60934e-01
       H -3.39315e+00  2.85384e-01 -8.29323e-02
       H -2.19448e+00  1.17247e+00  3.86781e-01
       H -3.89746e+00  1.72783e+00  6.52565e-01
4
# CELL(abcABC): 1000.00000  1000.00000  1000.00000    90.00000    90.00000    90.00000  Step:          75  Bead:       0 positions{angstrom}  cell{angstrom}
       O -3.14468e+00  1.06429e+00  3.60285e-01
       H -3.38190e+00  2.76812e-01 -8.76643e-02
       H -2.19353e+00  1.18195e+00  3.93735e-01
       H -3.89394e+00  1.71801e+00  6.60650e-01
4
# CELL(abcABC): 1000.00000  1000.00000  1000.00000    90.00000    90.00000    90.00000  Step:          76  Bead:       0 positions{angstrom}  cell{angstrom}
       O -3.14568e+00  1.06481e+00  3.59536e-01
       H -3.36967e+00  2.66764e-01 -9.20846e-02
       H -2.19427e+00  1.19140e+00  4.00959e-01
       H -3.88944e+00  1.71046e+00  6.69742e-01
4
# CELL(abcABC): 1000.00000  1000.00000  1000.00000    90.00000    90.00000    90.00000  Step:          77  Bead:       0 positions{angstrom}  cell{angstrom}
       O -3.14651e+00  1.06530e+00  3.58735e-01
       H -3.35723e+00  2.56884e-01 -9.66898e-02
       H -2.19731e+00  1.20101e+00  4.08955e-01
       H -3.88571e+00  1.70293e+00  6.79056e-01
4
# CELL(abcABC): 1000.00000  1000.00000  1000.00000    90.00000    90.00000    90.00000  Step:          78  Bead:       0 positions{angstrom}  cell{angstrom}
       O -3.14718e+00  1.06574e+00  3.58050e-01
       H -3.34555e+00  2.46562e-01 -1.01880e-01
       H -2.20127e+00  1.21110e+00  4.16838e-01
       H -3.88287e+00  1.69608e+00  6.87242e-01
4
# CELL(abcABC): 1000.00000  1000.00000  1000.00000    90.00000    90.00000    90.00000  Step:          79  Bead:       0 positions{angstrom}  cell{angstrom}
       O -3.14780e+00  1.06617e+00  3.57251e-01
       H -3.33402e+00  2.38048e-01 -1.04879e-01
       H -2.20544e+00  1.22012e+00  4.24616e-01
       H -3.88034e+00  1.68881e+00  6.95149e-01
4
# CELL(abcABC): 1000.00000  1000.00000  1000.00000    90.00000    90.00000    90.00000  Step:          80  Bead:       0 positions{angstrom}  cell{angstrom}
       O -3.14842e+00  1.06645e+00  3.56239e-01
       H -3.32157e+00  2.31852e-01 -1.06555e-01
       H -2.21037e+00  1.22863e+00  4.33511e-01
       H -3.87806e+00  1.68201e+00  7.03992e-01
4
# CELL(abcABC): 1000.00000  1000.00000  1000.00000    90.00000    90.00000    90.00000  Step:          81  Bead:       0 positions{angstrom}  cell{angstrom}
       O -3.14901e+00  1.06641e+00  3.55173e-01
       H -3.30657e+00  2.29002e-01 -1.07338e-01
       H -2.21666e+00  1.23878e+00  4.42641e-01
       H -3.87741e+00  1.67539e+00  7.12565e-01
4
# CELL(abcABC): 1000.00000  1000.00000  1000.00000    90.00000    90.00000    90.00000  Step:          82  Bead:       0 positions{angstrom}  cell{angstrom}
       O -3.14951e+00  1.06631e+00  3.53900e-01
       H -3.29057e+00  2.28068e-01 -1.05881e-01
       H -2.22295e+00  1.24755e+00  4.51736e-01
       H -3.87916e+00  1.66907e+00  7.22220e-01
4
# CELL(abcABC): 1000.00000  1000.00000  1000.00000    90.00000    90.00000    90.00000  Step:          83  Bead:       0 positions{angstrom}  cell{angstrom}
       O -3.14997e+00  1.06598e+00  3.52534e-01
       H -3.27442e+00  2.29755e-01 -1.02732e-01
       H -2.22917e+00  1.25663e+00  4.60853e-01
       H -3.88177e+00  1.66354e+00  7.31633e-01
4
# CELL(abcABC): 1000.00000  1000.00000  1000.00000    90.00000    90.00000    90.00000  Step:          84  Bead:       0 positions{angstrom}  cell{angstrom}
       O -3.15034e+00  1.06553e+00  3.51141e-01
       H -3.25733e+00  2.32226e-01 -9.97550e-02
       H -2.23599e+00  1.26590e+00  4.69838e-01
       H -3.88616e+00  1.65897e+00  7.41784e-01
4
# CELL(abcABC): 1000.00000  1000.00000  1000.00000    90.00000    90.00000    90.00000  Step:          85  Bead:       0 positions{angstrom}  cell{angstrom}