14
# CELL(abcABC): 1000.00000  1000.00000  1000.00000    90.00000    90.00000    90.00000  Step:          92  Bead:       0 positions{angstrom}  cell{angstrom}
       C -7.40168e-01  6.20761e-01 -9.47317e-02
       C  6.48347e-01  2.33645e-01  4.41835e-01
       C -1.73663e+00 -4.99347e-01 -1.03567e-03
       C -1.22654e+00  1.92977e+00  6.04771e-01
       H -1.44842e+00  1.70501e+00  1.65785e+00
       H -2.18213e+00  2.20740e+00  1.48566e-01
       H -5.62101e-01  2.77640e+00  5.36015e-01
       H -1.44004e+00 -1.33546e+00 -6.41770e-01
       H -2.72478e+00 -2.19652e-01 -3.59604e-01
       H -1.90969e+00 -8.84089e-01  1.01966e+00
       H  1.44202e+00  1.66889e-01 -3.34630e-01
       H  6.18492e-01 -8.03106e-01  7.90133e-01
       H  1.01280e+00  8.45189e-01  1.27452e+00
       H -5.70510e-01  7.93434e-01 -1.12445e+00
