14
# CELL(abcABC): 1000.00000  1000.00000  1000.00000    90.00000    90.00000    90.00000  Step:         107  Bead:       0 positions{angstrom}  cell{angstrom}
       C -5.77280e-01  6.73803e-01  5.19174e-02
       C  1.26586e-01 -5.43105e-01  7.42868e-01
       C -1.86237e+00  2.45635e-01 -7.55297e-01
       C -7.56497e-01  1.88899e+00  9.55195e-01
       H -1.40516e+00  1.86037e+00  1.81388e+00
       H -1.08437e+00  2.78424e+00  3.85685e-01
       H  2.45061e-01  2.13684e+00  1.35625e+00
       H -1.57703e+00 -4.78749e-01 -1.46568e+00
       H -2.30186e+00  1.07729e+00 -1.27533e+00
       H -2.62020e+00 -2.49778e-01 -1.77768e-01
       H  1.23390e+00 -2.57563e-01  1.08641e+00
       H  1.98112e-01 -1.40192e+00  6.27255e-02
       H -4.19660e-01 -8.17599e-01  1.60496e+00
       H  1.40423e-01  8.31145e-01 -9.47303e-01
