14
# CELL(abcABC): 1000.00000  1000.00000  1000.00000    90.00000    90.00000    90.00000  Step:          89  Bead:       0 positions{angstrom}  cell{angstrom}
       C -6.52337e-01  6.48208e-01  3.40500e-02
       C  3.13011e-01 -3.23943e-01  7.11257e-01
       C -1.87781e+00 -9.21109e-04 -5.34962e-01
       C -8.28978e-01  1.97168e+00  7.77316e-01
       H -1.50965e+00  1.73861e+00  1.61879e+00
       H -1.38016e+00  2.65824e+00  1.32217e-01
       H  1.13049e-01  2.40589e+00  1.05911e+00
       H -1.71955e+00 -7.98565e-01 -1.24632e+00
       H -2.57251e+00  6.46735e-01 -1.05247e+00
       H -2.60429e+00 -4.84250e-01  1.83235e-01
       H  1.52231e+00  5.64802e-02  7.90835e-01
       H  4.32460e-01 -1.29782e+00  1.64823e-01
       H -5.81100e-02 -5.50665e-01  1.73175e+00
       H -9.36798e-02  7.55932e-01 -8.54436e-01
