14
# CELL(abcABC): 1000.00000  1000.00000  1000.00000    90.00000    90.00000    90.00000  Step:         108  Bead:       0 positions{angstrom}  cell{angstrom}
       C -6.18044e-01  6.82560e-01 -2.61462e-03
       C  2.24436e-01 -4.48911e-01  7.44403e-01
       C -1.93835e+00  1.07522e-01 -6.35448e-01
       C -7.57284e-01  1.93043e+00  8.57085e-01
       H -1.29373e+00  1.84917e+00  1.79388e+00
       H -1.15309e+00  2.74614e+00  2.32131e-01
       H  2.87173e-01  2.18101e+00  1.13664e+00
       H -1.61252e+00 -6.29186e-01 -1.32247e+00
       H -2.44973e+00  9.20296e-01 -1.14303e+00
       H -2.49667e+00 -3.50641e-01  1.62376e-01
       H  1.26457e+00 -7.71816e-02  9.43245e-01
       H  1.51984e-01 -1.41198e+00  2.24799e-01
       H -1.95185e-01 -6.25289e-01  1.74658e+00
       H  1.40818e-01  8.07081e-01 -9.57852e-01
