11115
# CELL(abcABC):   47.66706    47.66706    47.66706    90.00000    90.00000    90.00000  Step:       10000  Bead:       0 positions{angstrom}  cell{angstrom}
       C  7.82102e+00  3.88644e+00  8.81846e+00
       H  7.77487e+00  4.91445e+00  8.41893e+00
       H  8.77659e+00  3.42540e+00  9.00361e+00
       H  7.27675e+00  3.79265e+00  9.82939e+00
       C  7.16781e+00  3.00909e+00  7.80572e+00
       O  5.93887e+00  2.96352e+00  7.68876e+00
       N  7.99277e+00  2.37732e+00  7.03136e+00
       H  8.99776e+00  2.58359e+00  7.19685e+00
       C  7.60769e+00  1.48814e+00  5.88474e+00
       H  6.84342e+00  2.05041e+00  5.37637e+00
       C  8.73173e+00  1.35470e+00  4.92055e+00
       H  9.51183e+00  8.30032e-01  5.39588e+00
       H  9.12301e+00  2.32287e+00  4.66373e+00
       C  8.41736e+00  7.36418e-01  3.59070e+00
       O  9.36818e+00  3.96954e-01  2.80929e+00
       O  7.24465e+00  5.19938e-01  3.24576e+00
       H  7.08987e+00  2.09909e-01  2.25297e+00
       C  7.17589e+00  5.35667e-02  6.24118e+00
       O  7.74032e+00 -9.59319e-01  5.86321e+00
       N  6.03171e+00  3.58629e-02  6.91190e+00
       H  5.72182e+00 -7.76200e-01  7.31253e+00
       H  5.44434e+00  8.31046e-01  6.90140e+00
       O -1.63404e+01 -1.48535e+01 -7.34310e+00
       H -1.61295e+01 -1.53108e+01 -8.13582e+00
       H -1.67952e+01 -1.40221e+01 -7.61520e+00
       O -3.50771e+01 -2.00343e+01 -3.27882e+01
       H -3.46389e+01 -2.08490e+01 -3.25183e+01
       H -3.43540e+01 -1.93340e+01 -3.25435e+01
       O -1.25221e+01 -1.55753e+01  1.33358e+00
       H -1.23009e+01 -1.65200e+01  1.36999e+00
       H -1.29846e+01 -1.55141e+01  4.37531e-01
       O -2.09746e+01 -3.24063e+01 -1.21908e+01
       H -2.03191e+01 -3.20371e+01 -1.27927e+01
       H -2.12853e+01 -3.31365e+01 -1.27194e+01
       O -2.92967e+01 -1.90771e+01 -1.41587e+00
       H -2.97575e+01 -1.97895e+01 -1.89621e+00
       H -2.86810e+01 -1.96673e+01 -9.90002e-01
       O -2.70852e+01 -2.77232e+01 -1.63510e+01
       H -2.72007e+01 -2.75070e+01 -1.73121e+01
       H -2.61721e+01 -2.78578e+01 -1.64779e+01
       O -3.09175e+01 -2.66588e+01 -1.60386e+01
       H -3.13199e+01 -2.69210e+01 -1.69225e+01
       H -3.02567e+01 -2.59324e+01 -1.63050e+01
       O -2.40918e+01 -1.20775e+01 -2.12118e+01
       H -2.40474e+01 -1.11903e+01 -2.08165e+01
       H -2.37777e+01 -1.25921e+01 -2.04750e+01
       O -1.67976e+01 -3.13999e+01 -2.47320e+01
       H -1.72363e+01 -3.05216e+01 -2.46887e+01
       H -1.65506e+01 -3.14798e+01 -2.37958e+01
       O -1.93354e-01 -2.85860e+01 -2.24552e+00
       H -2.03001e-01 -2.84353e+01 -3.17014e+00
       H -8.69012e-01 -2.92796e+01 -2.18891e+00
       O -1.89100e+01 -7.33908e+00 -2.37353e+01
       H -1.89183e+01 -7.04961e+00 -2.28090e+01
       H -1.79845e+01 -7.51041e+00 -2.39214e+01
       O -7.70021e+00  1.00584e+01 -6.49043e+00
       H -6.87487e+00  9.63310e+00 -6.69729e+00
       H -7.43866e+00  1.08159e+01 -5.90881e+00
       O -1.59922e+01 -2.32041e+01 -2.61287e+01
       H -1.50870e+01 -2.34446e+01 -2.60573e+01
       H -1.62890e+01 -2.31879e+01 -2.52068e+01
       O -2.13276e+01 -1.34888e+01 -1.02882e+01
       H -2.06643e+01 -1.36650e+01 -9.62160e+00
       H -2.11761e+01 -1.41635e+01 -1.09231e+01
       O -3.05384e+01 -3.27331e+01 -3.49237e+01
       H -2.99309e+01 -3.22062e+01 -3.54226e+01
       H -3.00832e+01 -3.26241e+01 -3.40384e+01
       O -1.01486e+01 -1.97313e+01 -1.52133e+01
       H -9.70665e+00 -2.01341e+01 -1.59785e+01
       H -1.10112e+01 -1.95340e+01 -1.56065e+01
       O -3.01524e+01 -3.10860e+01  7.45157e+00
       H -3.10117e+01 -3.06217e+01  7.76604e+00
       H -3.01551e+01 -3.20158e+01  7.80375e+00
       O -1.51908e+01 -6.27104e+00 -2.61286e+01
       H -1.57341e+01 -5.48611e+00 -2.61383e+01
       H -1.49882e+01 -6.18213e+00 -2.51859e+01
       O -2.44886e+01 -1.80619e+01  1.07283e+01
       H -2.45007e+01 -1.89051e+01  1.02060e+01
       H -2.44078e+01 -1.83760e+01  1.16854e+01
       O -2.01390e+01  6.64379e+00 -3.19486e+01
       H -2.10936e+01  6.75030e+00 -3.20887e+01
       H -1.98178e+01  6.24715e+00 -3.27649e+01
       O -4.89132e+00 -3.22919e+01 -1.08036e+01
       H -4.57099e+00 -3.17758e+01 -1.00479e+01
       H -5.78849e+00 -3.25197e+01 -1.05578e+01
       O -3.77254e+01 -2.16884e+00 -2.52550e+01
       H -3.76517e+01 -1.67825e+00 -2.44534e+01
       H -3.86073e+01 -1.89771e+00 -2.55989e+01
       O -7.62272e-01 -9.23032e+00 -1.47232e+01
       H  5.51012e-02 -9.45054e+00 -1.41836e+01
       H -3.17662e-01 -9.42726e+00 -1.56058e+01
       O -2.98768e+01 -1.63396e+01 -1.90126e+01
       H -2.96306e+01 -1.58037e+01 -1.97935e+01
       H -2.96639e+01 -1.56772e+01 -1.83301e+01
       O -1.25986e+01 -3.75905e+01 -3.23982e+01
       H -1.33683e+01 -3.69458e+01 -3.21970e+01
       H -1.30250e+01 -3.84531e+01 -3.21536e+01
       O -1.54681e+01 -5.67822e+00 -1.97481e+01
       H -1.48957e+01 -4.99558e+00 -1.93918e+01
       H -1.61304e+01 -5.52866e+00 -1.90987e+01
       O -1.02400e+01  1.75339e+01 -2.26566e+00
       H -1.04454e+01  1.65764e+01 -2.16605e+00
       H -9.48023e+00  1.74925e+01 -2.83233e+00
       O -1.38324e+01 -6.96949e+00  2.85986e+00
       H -1.33162e+01 -7.71064e+00  3.27331e+00
       H -1.33756e+01 -6.14333e+00  3.13084e+00
       O -1.02034e+01 -1.08298e+01 -1.37984e+01
       H -1.10373e+01 -1.12124e+01 -1.41703e+01
       H -1.00902e+01 -9.90770e+00 -1.41927e+01
       O -1.37915e+01 -1.72970e+01 -8.49970e+00
       H -1.28100e+01 -1.71998e+01 -8.53040e+00
       H -1.38660e+01 -1.75622e+01 -9.41482e+00
       O  1.02314e+01  9.03853e+00 -4.12600e+01
       H  1.12073e+01  9.20279e+00 -4.15245e+01
       H  9.85742e+00  9.78531e+00 -4.17791e+01
       O  4.86967e+00 -2.53247e+01 -2.13609e+01
       H  5.33814e+00 -2.51341e+01 -2.21844e+01
       H  3.97794e+00 -2.52211e+01 -2.17240e+01
       O  4.60137e+00 -2.34753e+00 -5.09769e+00
       H  4.29552e+00 -1.91873e+00 -5.90567e+00
       H  3.88709e+00 -2.93574e+00 -4.93730e+00
       O -3.74926e+01 -1.56052e+01 -5.47627e+00
       H -3.80950e+01 -1.50027e+01 -5.21921e+00
       H -3.69513e+01 -1.51074e+01 -6.15673e+00
       O -8.95849e+00 -1.90103e+01 -1.29710e+01
       H -9.23066e+00 -1.94059e+01 -1.38509e+01
       H -9.70446e+00 -1.92580e+01 -1.24337e+01
       O -1.47293e+01 -2.03300e+01 -2.42303e+01
       H -1.51202e+01 -2.00691e+01 -2.50690e+01
       H -1.40281e+01 -2.08246e+01 -2.45474e+01
       O -1.16843e+01 -1.85047e+01  1.35535e+00
       H -1.06752e+01 -1.84875e+01  1.35226e+00
       H -1.18258e+01 -1.91920e+01  1.95655e+00
       O -2.14453e+01 -4.05436e+01 -1.19043e+01
       H -2.13468e+01 -3.97287e+01 -1.14511e+01
       H -2.23748e+01 -4.04467e+01 -1.22202e+01
       O -6.63443e+00 -5.99638e+00  3.56144e+00
       H -6.82321e+00 -5.96188e+00  4.49929e+00
       H -7.19075e+00 -5.26626e+00  3.29528e+00
       O  1.20960e+01 -3.55123e+00 -3.95470e+01
       H  1.11705e+01 -3.30515e+00 -3.95963e+01
       H  1.20218e+01 -4.42867e+00 -4.00387e+01
       O -7.27801e+00 -3.15693e+01 -1.94846e+01
       H -6.78799e+00 -3.20304e+01 -1.87606e+01
       H -6.53554e+00 -3.11812e+01 -1.99767e+01
       O -3.12513e+01 -1.49881e+01 -5.91490e+00
       H -3.21998e+01 -1.51189e+01 -6.24815e+00
       H -3.11681e+01 -1.57915e+01 -5.37061e+00
       O -1.34420e+00 -1.45137e+01 -2.04339e+01
       H -9.61520e-01 -1.46514e+01 -1.95372e+01
       H -6.96202e-01 -1.49675e+01 -2.08945e+01
       O -2.12326e+01 -5.63544e+01 -2.42295e+01
       H -2.03971e+01 -5.58655e+01 -2.39715e+01
       H -2.10669e+01 -5.71753e+01 -2.38062e+01
       O -2.06286e+01 -5.44280e+00 -3.94814e+01
       H -2.03850e+01 -6.36304e+00 -3.90506e+01
       H -2.16346e+01 -5.52637e+00 -3.93743e+01
       O -1.05346e+01 -1.52678e+00 -3.33321e+01
       H -1.11857e+01 -1.94856e+00 -3.38839e+01
       H -1.00305e+01 -1.04747e+00 -3.40034e+01
       O -5.05052e+01 -2.11335e+01 -7.48118e+00
       H -4.97914e+01 -2.09536e+01 -8.08006e+00
       H -5.09009e+01 -2.19435e+01 -7.70985e+00
       O -2.48044e+01 -7.46678e+00 -1.06507e+01
       H -2.56687e+01 -7.08286e+00 -1.06470e+01
       H -2.49885e+01 -8.31940e+00 -1.02185e+01
       O -2.26784e+01 -2.33551e+01 -1.92197e+01
       H -2.25131e+01 -2.34123e+01 -2.01839e+01
       H -2.20773e+01 -2.26367e+01 -1.89382e+01
       O  3.95771e+00 -5.34097e+00  3.56021e+00
       H  3.92515e+00 -5.65089e+00  4.41207e+00
       H  4.92900e+00 -5.10441e+00  3.54740e+00
       O -1.05863e+00  3.31535e+00  7.61199e+00
       H -1.24098e+00  2.49668e+00  7.19652e+00
       H -1.11279e-01  3.16937e+00  7.78822e+00
       O  1.31984e-01 -1.12869e+00 -3.34542e+00
       H -7.81067e-01 -1.46774e+00 -3.25162e+00
       H  1.29586e-01 -7.81698e-01 -4.25455e+00
       O -1.49562e+01 -6.98946e+00 -2.23517e+01
       H -1.45680e+01 -6.35807e+00 -2.30277e+01
       H -1.52192e+01 -6.41008e+00 -2.15688e+01
       O -1.16247e+01  1.03280e+01 -1.52409e+01
       H -1.21171e+01  9.87193e+00 -1.45714e+01
       H -1.07996e+01  1.04670e+01 -1.47559e+01
       O -1.34389e+01 -1.17502e+01 -5.26465e+00
       H -1.38253e+01 -1.11787e+01 -5.91942e+00
       H -1.25067e+01 -1.14084e+01 -5.26085e+00
       O -1.34582e+01 -3.35992e+01 -3.32678e+01
       H -1.27822e+01 -3.40968e+01 -3.37648e+01
       H -1.39083e+01 -3.43027e+01 -3.27125e+01
       O -1.62255e+01 -2.64407e+01 -8.53325e+00
       H -1.52892e+01 -2.65325e+01 -8.25165e+00
       H -1.62903e+01 -2.71925e+01 -9.11508e+00
       O -1.83656e+01 -3.85980e+01 -7.30319e+00
       H -1.87627e+01 -3.91546e+01 -8.02433e+00
       H -1.90120e+01 -3.88194e+01 -6.60318e+00
       O  2.58243e+00  1.69417e+00 -4.75202e+00
       H  1.61133e+00  1.73588e+00 -4.94526e+00
       H  2.50432e+00  2.39057e+00 -4.05608e+00
       O -3.05872e+00 -2.97538e+01 -2.72454e+01
       H -3.03521e+00 -2.98013e+01 -2.82619e+01
       H -2.61093e+00 -3.05617e+01 -2.69809e+01
       O  4.83889e+00  9.49771e-01 -2.29878e+01
       H  4.67514e+00  7.40938e-01 -2.38871e+01
       H  4.46664e+00  1.54007e-01 -2.25082e+01
       O -3.91768e+01 -1.89354e+01 -1.36089e+01
       H -3.85609e+01 -1.91660e+01 -1.43257e+01
       H -3.97171e+01 -1.97414e+01 -1.34853e+01
       O -1.60297e+01 -4.73635e+01 -1.83887e+01
       H -1.56855e+01 -4.69531e+01 -1.75503e+01
       H -1.52524e+01 -4.78246e+01 -1.87648e+01
       O -1.28966e+01 -2.06415e+01 -6.21317e+00
       H -1.31364e+01 -1.96819e+01 -6.17723e+00
       H -1.25070e+01 -2.07410e+01 -5.26436e+00
       O  9.62566e-01 -1.62260e+01 -2.06298e+01
       H  6.70624e-01 -1.67951e+01 -1.98667e+01
       H  4.86392e-01 -1.66429e+01 -2.13359e+01
       O -1.95301e+01 -3.45862e+01 -1.67801e+01
       H -2.02027e+01 -3.52974e+01 -1.68109e+01
       H -1.97359e+01 -3.42433e+01 -1.76706e+01
       O -3.56220e+01 -1.35631e+01 -2.07849e+01
       H -3.57169e+01 -1.29249e+01 -2.15543e+01
       H -3.58155e+01 -1.44615e+01 -2.11418e+01
       O -2.09230e+01 -1.70481e+01 -2.99659e+01
       H -2.04574e+01 -1.79583e+01 -2.99173e+01
       H -2.12680e+01 -1.71342e+01 -3.08980e+01
       O -2.02382e+01  1.56585e+00 -2.68264e+01
       H -2.11334e+01  1.94422e+00 -2.68598e+01
       H -2.00612e+01  1.19983e+00 -2.77100e+01
       O -2.30048e+01 -8.38977e+00 -1.29184e+01
       H -2.21843e+01 -8.92946e+00 -1.28545e+01
       H -2.32241e+01 -8.23099e+00 -1.20136e+01
       O -1.85924e+01 -2.89640e+01  9.84231e+00
       H -1.93400e+01 -2.85701e+01  9.48154e+00
       H -1.79263e+01 -2.87012e+01  9.10572e+00
       O  2.30030e+00 -1.39185e+01 -3.40689e+00
       H  2.34255e+00 -1.41300e+01 -4.37536e+00
       H  2.76634e+00 -1.31139e+01 -3.41675e+00
       O -1.86054e+01 -2.55002e+01 -3.15977e+01
       H -1.78978e+01 -2.57739e+01 -3.10099e+01
       H -1.89223e+01 -2.63190e+01 -3.20107e+01
       O -1.43375e+01 -2.27665e+01 -3.32299e+01
       H -1.47205e+01 -2.36743e+01 -3.31455e+01
       H -1.42064e+01 -2.27273e+01 -3.41964e+01
       O -2.68464e+01 -3.36373e+01  8.11635e+00
       H -2.68044e+01 -3.45343e+01  8.44361e+00
       H -2.77795e+01 -3.33875e+01  8.10126e+00
       O -2.75627e+01 -2.52684e+01 -3.43659e+01
       H -2.84085e+01 -2.54025e+01 -3.39012e+01
       H -2.68989e+01 -2.52077e+01 -3.36203e+01
       O -2.01548e+00 -1.76984e+01  1.21357e+01
       H -2.72274e+00 -1.77654e+01  1.28232e+01
       H -1.83547e+00 -1.85908e+01  1.18167e+01
       O -3.70521e+01 -1.20743e+01  2.01975e+00
       H -3.70191e+01 -1.29840e+01  2.29791e+00
       H -3.79261e+01 -1.22288e+01  1.64274e+00
       O -1.63642e+01 -2.62983e+01 -5.11465e+00
       H -1.54485e+01 -2.63457e+01 -4.98961e+00
       H -1.65652e+01 -2.55805e+01 -4.53267e+00
       O -1.99203e+01 -2.35153e+01 -2.54871e+01
       H -2.04941e+01 -2.26620e+01 -2.55941e+01
       H -1.92645e+01 -2.31385e+01 -2.48337e+01
       O -4.65211e+00 -1.45338e+01 -1.85492e+01
       H -4.24913e+00 -1.54027e+01 -1.83185e+01
       H -4.97963e+00 -1.43194e+01 -1.76677e+01
       O -1.22122e+01 -1.51038e+01 -1.36723e+01
       H -1.20712e+01 -1.42006e+01 -1.32222e+01
       H -1.16390e+01 -1.50071e+01 -1.44555e+01
       O -3.25001e+01  1.60608e+01 -1.67080e+01
       H -3.29079e+01  1.66128e+01 -1.59988e+01
       H -3.29340e+01  1.52096e+01 -1.64263e+01
       O -5.46043e+00 -2.12683e+01 -2.23452e+01
       H -6.26136e+00 -2.14501e+01 -2.18790e+01
       H -4.82036e+00 -2.20091e+01 -2.22473e+01
       O -8.11907e+00 -2.39276e+01 -4.10404e+01
       H -8.91896e+00 -2.35483e+01 -4.06237e+01
       H -7.88232e+00 -2.46488e+01 -4.04197e+01
       O -1.77694e+01 -2.03920e+01 -1.75332e+01
       H -1.86179e+01 -2.00841e+01 -1.71535e+01
       H -1.77955e+01 -2.00955e+01 -1.84735e+01
       O -1.06974e+01  2.55021e+00 -1.65679e+01
       H -1.11533e+01  3.31787e+00 -1.69048e+01
       H -9.79588e+00  2.84387e+00 -1.63299e+01
       O -1.39401e+01 -2.30074e+01 -3.58981e+01
       H -1.33582e+01 -2.30256e+01 -3.67102e+01
       H -1.44466e+01 -2.37948e+01 -3.60081e+01
       O -4.64938e+01 -3.04474e+01 -1.72498e+01
       H -4.55745e+01 -3.07358e+01 -1.73686e+01
       H -4.65191e+01 -2.95805e+01 -1.75725e+01
       O -1.82861e+01 -2.09703e+01  1.41025e+01
       H -1.86488e+01 -2.14392e+01  1.33053e+01
       H -1.83290e+01 -2.17117e+01  1.47719e+01
       O -3.44729e+00  1.17396e+00  2.81974e+00
       H -3.15134e+00  2.06191e+00  3.15334e+00
       H -3.99243e+00  8.79011e-01  3.52820e+00
       O -1.99555e+01 -2.71449e+01 -9.37322e+00
       H -1.91291e+01 -2.69029e+01 -9.90459e+00
       H -1.99715e+01 -2.65647e+01 -8.55830e+00
       O -9.34584e-01 -1.13788e+01  1.73900e+01
       H -1.66573e+00 -1.19487e+01  1.76260e+01
       H -2.43066e-01 -1.19248e+01  1.77308e+01
       O -7.10122e+00 -4.57111e+00 -9.91488e+00
       H -6.36938e+00 -4.24659e+00 -9.34097e+00
       H -7.89471e+00 -4.35016e+00 -9.43363e+00
       O  1.40394e+01  1.77415e+01 -1.45196e+00
       H  1.40447e+01  1.69421e+01 -9.27156e-01
       H  1.46321e+01  1.84042e+01 -1.01865e+00
       O -1.10825e+01 -2.34496e+00 -2.99079e+01
       H -1.16551e+01 -2.89223e+00 -2.93725e+01
       H -1.15200e+01 -1.46582e+00 -2.98578e+01
       O -8.10200e+00 -1.17075e+01 -3.11188e+01
       H -8.06366e+00 -1.20072e+01 -3.01774e+01
       H -9.08394e+00 -1.17715e+01 -3.12147e+01
       O -2.27901e+01 -1.27894e+01 -2.37085e+01
       H -2.31726e+01 -1.22396e+01 -2.29316e+01
       H -2.34285e+01 -1.35199e+01 -2.37004e+01
       O -1.92365e+01 -3.03900e+01 -3.44873e+01
       H -1.89070e+01 -3.09127e+01 -3.37573e+01
       H -2.02316e+01 -3.04309e+01 -3.43110e+01
       O -8.43133e+00 -1.01152e-01  6.88927e+00
       H -8.81493e+00 -6.69343e-01  7.57068e+00
       H -8.78912e+00 -5.99304e-01  6.08080e+00
       O -1.80841e+01 -2.60298e+01 -1.08301e+01
       H -1.73765e+01 -2.55290e+01 -1.04149e+01
       H -1.82116e+01 -2.53483e+01 -1.15011e+01
       O -2.43910e+00 -8.99951e+00 -1.24978e+01
       H -3.29191e+00 -9.49979e+00 -1.24864e+01
       H -2.06921e+00 -9.24193e+00 -1.33628e+01
       O -5.70628e+00 -1.46103e+01 -5.04798e+00
       H -5.40583e+00 -1.45437e+01 -5.98327e+00
       H -6.61269e+00 -1.43372e+01 -5.20146e+00
       O  2.11589e+01  1.65756e+01 -2.39836e+01
       H  2.13970e+01  1.71186e+01 -2.46898e+01
       H  2.19866e+01  1.65868e+01 -2.35179e+01
       O -2.09008e+01 -2.02049e+01 -1.03758e+01
       H -2.13858e+01 -1.95075e+01 -9.85756e+00
       H -2.10002e+01 -2.08838e+01 -9.69153e+00
       O -1.99838e+01 -3.58135e+01 -9.97343e+00
       H -1.96950e+01 -3.56592e+01 -9.02294e+00
       H -2.06464e+01 -3.51005e+01 -1.00820e+01
       O -1.16162e+01 -2.80760e+01 -1.26473e+01
       H -1.13546e+01 -2.89586e+01 -1.28658e+01
       H -1.25762e+01 -2.81557e+01 -1.23370e+01
       O -5.57093e+00 -2.41286e+01 -1.84637e+01
       H -6.45684e+00 -2.38078e+01 -1.83838e+01
       H -5.42822e+00 -2.49015e+01 -1.79276e+01
       O -2.38100e+01 -2.64367e+00 -2.18352e+01
       H -2.33536e+01 -2.88254e+00 -2.09554e+01
       H -2.33672e+01 -1.80001e+00 -2.20035e+01
       O -2.05643e+01 -3.23231e+01 -1.94915e+01
       H -2.05041e+01 -3.21280e+01 -1.85324e+01
       H -1.99713e+01 -3.30428e+01 -1.95575e+01
       O -1.22625e+01 -9.56430e+00 -3.60161e+00
       H -1.26517e+01 -1.01976e+01 -2.90274e+00
       H -1.31270e+01 -9.33261e+00 -3.97282e+00
       O -1.60110e+01 -4.99363e+01 -5.20739e+01
       H -1.55172e+01 -5.01410e+01 -5.28842e+01
       H -1.58429e+01 -4.89766e+01 -5.20005e+01
       O -1.31456e+01 -1.68593e+01 -1.14132e+01
       H -1.28619e+01 -1.77304e+01 -1.15847e+01
       H -1.23833e+01 -1.63929e+01 -1.17674e+01
       O -1.65455e+01 -3.24498e+01 -1.73983e+01
       H -1.68834e+01 -3.31744e+01 -1.68136e+01
       H -1.63196e+01 -3.30270e+01 -1.82003e+01
       O -1.48888e+01 -1.09194e+01 -1.37776e+01
       H -1.40151e+01 -1.09779e+01 -1.41985e+01
       H -1.46316e+01 -1.10565e+01 -1.28398e+01
       O -2.21364e+01 -1.82595e+01 -1.78366e+01
       H -2.15362e+01 -1.74885e+01 -1.80937e+01
       H -2.24171e+01 -1.79667e+01 -1.69602e+01
       O -9.11950e+00 -1.84443e+01  2.32391e+00
       H -8.50130e+00 -1.82792e+01  1.54979e+00
       H -8.60299e+00 -1.81266e+01  3.06308e+00
       O -6.57300e+00 -2.55334e+01 -4.44112e+01
       H -6.35309e+00 -2.53814e+01 -4.34499e+01
       H -7.41619e+00 -2.49867e+01 -4.43813e+01
       O -5.96969e+00 -2.04394e+01 -1.29429e+01
       H -6.91403e+00 -2.02358e+01 -1.27934e+01
       H -5.74275e+00 -2.11512e+01 -1.22988e+01
       O -1.64196e+01 -2.35435e+01 -1.14078e+01
       H -1.57519e+01 -2.35176e+01 -1.07418e+01
       H -1.72224e+01 -2.30542e+01 -1.10225e+01
       O -2.47065e+01 -1.53271e+01 -2.41827e+01
       H -2.55500e+01 -1.56608e+01 -2.45205e+01
       H -2.48009e+01 -1.55729e+01 -2.32604e+01
       O  3.84876e+00 -3.28488e+00 -2.23217e+01
       H  3.67801e+00 -2.45989e+00 -2.19077e+01
       H  4.11957e+00 -3.91239e+00 -2.15506e+01
       O  3.75597e-01 -4.47159e+00  1.23529e+01
       H  7.63547e-01 -5.31477e+00  1.26681e+01
       H -8.48966e-02 -4.23893e+00  1.30828e+01
       O -1.72823e+01 -2.27710e+01  8.61348e+00
       H -1.73687e+01 -2.31394e+01  9.46741e+00
       H -1.78446e+01 -2.33926e+01  8.10060e+00
       O -2.56441e+01 -8.23823e+00 -4.66296e-01
       H -2.56827e+01 -9.16441e+00 -8.32866e-01
       H -2.64110e+01 -7.86138e+00 -8.68135e-01
       O -4.12936e+01 -1.34973e+01 -6.75999e+00
       H -4.22184e+01 -1.37616e+01 -6.88247e+00
       H -4.09381e+01 -1.42220e+01 -7.34857e+00
       O  8.14774e-01 -5.77304e+00  1.25367e+00
       H  8.02436e-01 -5.26217e+00  2.06347e+00
       H  2.07778e-01 -5.25112e+00  7.34585e-01
       O -2.58372e+01 -1.00236e+01 -5.44265e+01
       H -2.57121e+01 -9.45944e+00 -5.36518e+01
       H -2.67738e+01 -1.02043e+01 -5.42822e+01
       O -1.22278e+01 -2.45303e+01 -1.07816e+01
       H -1.28082e+01 -2.48228e+01 -1.00685e+01
       H -1.24884e+01 -2.35995e+01 -1.09593e+01
       O -2.73355e+00 -1.15720e+01 -2.68447e+01
       H -2.31022e+00 -1.08574e+01 -2.64152e+01
       H -2.00827e+00 -1.21812e+01 -2.70895e+01
       O -5.97230e+01 -1.70703e+01 -1.84870e+00
       H -5.94334e+01 -1.71418e+01 -9.42316e-01
       H -6.02900e+01 -1.79138e+01 -1.82153e+00
       O -4.79192e+00 -1.12157e+01 -9.97418e-01
       H -5.11161e+00 -1.05972e+01 -3.39686e-01
       H -3.91092e+00 -1.08450e+01 -1.13592e+00
       O -1.29155e+01 -1.15063e+01  2.37508e+01
       H -1.26266e+01 -1.07094e+01  2.32067e+01
       H -1.29485e+01 -1.10254e+01  2.45923e+01
       O -1.08658e+01 -3.79025e+01 -3.79072e+01
       H -1.08548e+01 -3.74831e+01 -3.70362e+01
       H -1.18257e+01 -3.81397e+01 -3.80537e+01
       O -1.17731e+01 -1.27081e+01 -1.23779e+01
       H -1.11169e+01 -1.20766e+01 -1.27370e+01
       H -1.18911e+01 -1.22370e+01 -1.15379e+01
       O -1.22389e+01 -8.96357e+00  7.81857e+00
       H -1.26223e+01 -9.64345e+00  7.24346e+00
       H -1.14216e+01 -8.64781e+00  7.23342e+00
       O -9.49208e+00 -5.50060e+00 -5.94740e+00
       H -8.58115e+00 -5.77464e+00 -5.98155e+00
       H -9.72206e+00 -5.63946e+00 -5.07816e+00
       O -3.58132e+01 -7.10655e+00 -3.08971e-01
       H -3.57318e+01 -7.00944e+00  6.51833e-01
       H -3.49981e+01 -7.63094e+00 -4.07111e-01
       O -1.46090e+01 -1.88402e+01 -3.41025e+01
       H -1.46784e+01 -1.94207e+01 -3.49086e+01
       H -1.37054e+01 -1.86403e+01 -3.41210e+01
       O -9.93286e+00 -1.09617e+01 -8.88680e-01
       H -9.76665e+00 -1.01016e+01 -1.35085e+00
       H -9.04093e+00 -1.10385e+01 -6.13658e-01
       O -1.57013e+01 -3.12505e+01 -1.90133e+00
       H -1.50302e+01 -3.12796e+01 -2.60782e+00
       H -1.61876e+01 -3.21029e+01 -1.97837e+00
       O -1.52196e+00 -4.74315e+01 -5.90799e+00
       H -2.01997e+00 -4.82956e+01 -5.72135e+00
       H -1.69654e+00 -4.69130e+01 -5.15193e+00
       O -2.69183e+00 -6.32875e+00  4.71730e+00
       H -3.02916e+00 -7.03457e+00  5.28319e+00
       H -2.43812e+00 -5.64648e+00  5.30567e+00
       O -2.59586e+01 -2.49720e+01  1.21813e+00
       H -2.58959e+01 -2.40849e+01  1.55083e+00
       H -2.69501e+01 -2.51932e+01  1.27203e+00
       O  7.16785e+00  1.22197e+01  8.80071e-01
       H  7.92604e+00  1.22514e+01  1.45612e+00
       H  6.50017e+00  1.17352e+01  1.41781e+00
       O -8.72469e+00 -2.93646e+01 -1.57860e+01
       H -7.74431e+00 -2.94231e+01 -1.60254e+01
       H -8.88520e+00 -2.83821e+01 -1.55735e+01
       O -2.12991e+01 -2.51080e+01 -1.06972e+01
       H -2.19000e+01 -2.57980e+01 -1.10707e+01
       H -2.10555e+01 -2.56526e+01 -9.91072e+00
       O -2.23895e+01 -2.55323e+01 -1.50308e+01
       H -2.32308e+01 -2.53346e+01 -1.45625e+01
       H -2.19667e+01 -2.46878e+01 -1.49959e+01
       O -1.13398e+00 -8.00780e+00  2.97873e-01
       H -3.73254e-01 -7.47327e+00  1.93109e-01
       H -1.16764e+00 -7.96580e+00  1.26750e+00
       O -1.27447e+01 -1.92307e+01 -1.59838e+01
       H -1.29916e+01 -2.01090e+01 -1.61544e+01
       H -1.33300e+01 -1.88374e+01 -1.66784e+01
       O -2.05952e+01 -2.75073e+01 -1.46643e+01
       H -2.11352e+01 -2.67193e+01 -1.47840e+01
       H -1.97815e+01 -2.70874e+01 -1.42260e+01
       O  2.93975e+00 -1.26405e+01 -8.93761e+00
       H  1.98444e+00 -1.26394e+01 -9.01000e+00
       H  2.99258e+00 -1.35947e+01 -9.07415e+00
       O -1.06998e+01 -2.75603e+01 -1.78690e+01
       H -1.09443e+01 -2.74769e+01 -1.69393e+01
       H -1.14973e+01 -2.79870e+01 -1.82182e+01
       O -2.13538e+01 -1.56557e+01 -1.85154e+01
       H -2.11113e+01 -1.53312e+01 -1.76339e+01
       H -2.05569e+01 -1.60043e+01 -1.88691e+01
       O -2.97583e+01 -9.75296e-01 -9.81649e+00
       H -2.93772e+01 -8.42744e-01 -1.07269e+01
       H -3.06761e+01 -6.24541e-01 -9.86031e+00
       O -1.30684e+01 -1.71417e+00  3.48754e+00
       H -1.32399e+01 -1.28073e+00  2.63052e+00
       H -1.35348e+01 -1.03199e+00  4.02317e+00
       O -2.36558e+01 -5.57699e+00 -9.04112e+00
       H -2.39535e+01 -6.26681e+00 -9.58766e+00
       H -2.40776e+01 -4.75774e+00 -9.48254e+00
       O -1.40632e+00  1.18533e+00 -2.10029e+01
       H -8.66122e-01  6.38827e-01 -2.03424e+01
       H -2.31825e+00  1.01163e+00 -2.07892e+01
       O -1.96304e+01 -6.07601e+00 -3.30441e+00
       H -1.91304e+01 -6.92720e+00 -3.48576e+00
       H -1.89425e+01 -5.42049e+00 -3.59468e+00
       O -1.87339e+01 -2.33975e+01 -5.07362e+00
       H -1.78360e+01 -2.30007e+01 -5.28805e+00
       H -1.84824e+01 -2.40345e+01 -4.33372e+00
       O  4.10570e+00  7.96657e+00  9.34105e+00
       H  5.01521e+00  8.27695e+00  9.31972e+00
       H  4.04596e+00  7.60132e+00  1.02304e+01
       O -1.77280e+01 -1.29568e+01 -1.32266e+00
       H -1.75351e+01 -1.30313e+01 -3.33947e-01
       H -1.87015e+01 -1.32267e+01 -1.35985e+00
       O -2.19015e+00 -2.40248e+01 -3.49464e+01
       H -1.50308e+00 -2.37907e+01 -3.56158e+01
       H -2.95793e+00 -2.33724e+01 -3.51012e+01
       O -1.28560e+00 -1.08354e+01 -1.07915e+01
       H -1.37727e+00 -9.88001e+00 -1.09273e+01
       H -1.61110e+00 -1.11585e+01 -1.16848e+01
       O -3.74753e+00 -2.04747e+01  3.23683e+00
       H -3.27306e+00 -2.02994e+01  2.43171e+00
       H -4.04686e+00 -2.13558e+01  3.05248e+00
       O -2.36313e+01 -1.38835e+01 -1.43458e+01
       H -2.36126e+01 -1.35769e+01 -1.33931e+01
       H -2.39623e+01 -1.29841e+01 -1.46947e+01
       O -1.63676e+01 -8.57289e+00 -2.39394e+01
       H -1.57527e+01 -8.09240e+00 -2.33502e+01
       H -1.57897e+01 -8.70177e+00 -2.47088e+01
       O -2.04363e+01 -1.66994e+01 -1.05190e+01
       H -1.98501e+01 -1.69908e+01 -9.77990e+00
       H -2.11646e+01 -1.63495e+01 -1.00375e+01
       O -1.30114e+01 -2.08495e+01 -2.02209e+01
       H -1.36802e+01 -2.14559e+01 -2.02026e+01
       H -1.34821e+01 -2.00827e+01 -1.98761e+01
       O -1.98016e+01  7.57796e+00 -2.67184e+01
       H -2.02474e+01  6.83402e+00 -2.70592e+01
       H -2.04955e+01  8.19458e+00 -2.64502e+01
       O  4.46945e+00 -2.14385e+01 -2.16252e+01
       H  4.43324e+00 -2.08457e+01 -2.09033e+01
       H  4.41479e+00 -2.08398e+01 -2.23832e+01
       O -1.44032e+01 -3.28757e+01 -1.30605e+01
       H -1.49038e+01 -3.24887e+01 -1.37924e+01
       H -1.37388e+01 -3.34131e+01 -1.35620e+01
       O -2.41801e+01 -4.52411e+00  9.64692e+00
       H -2.42813e+01 -5.47769e+00  9.69826e+00
       H -2.49962e+01 -4.26465e+00  9.22920e+00
       O -3.10708e+01 -3.51498e+01 -2.10242e+01
       H -3.19081e+01 -3.55314e+01 -2.12636e+01
       H -3.05709e+01 -3.59437e+01 -2.09151e+01
       O -5.84068e+00 -2.03200e+01 -1.74377e+01
       H -5.37370e+00 -2.01011e+01 -1.65975e+01
       H -6.49252e+00 -1.96039e+01 -1.74638e+01
       O -4.00266e+01 -2.90208e+01 -2.45613e+01
       H -3.98070e+01 -2.90155e+01 -2.36293e+01
       H -4.05547e+01 -2.82085e+01 -2.46875e+01
       O -4.45122e+01 -2.09169e+01 -8.07006e+00
       H -4.50163e+01 -2.10415e+01 -8.93366e+00
       H -4.36451e+01 -2.14963e+01 -8.31268e+00
       O  1.68918e+00 -6.74697e-01 -1.29295e+00
       H  1.87384e+00 -1.58518e+00 -1.31098e+00
       H  1.30357e+00 -7.26494e-01 -2.20102e+00
       O -9.11859e+00 -2.31024e+01 -4.67374e+01
       H -8.42663e+00 -2.24865e+01 -4.64271e+01
       H -8.54123e+00 -2.37339e+01 -4.72263e+01
       O -7.93546e+00 -2.21377e+01 -2.08671e+01
       H -8.84010e+00 -2.17400e+01 -2.06615e+01
       H -8.32128e+00 -2.29952e+01 -2.13564e+01
       O -7.89984e+00 -1.58613e+01  1.44028e+00
       H -7.48741e+00 -1.58115e+01  2.28785e+00
       H -8.58355e+00 -1.52034e+01  1.47797e+00
       O -4.81726e+01 -1.66737e+01 -7.51646e+00
       H -4.75377e+01 -1.68575e+01 -8.21333e+00
       H -4.87673e+01 -1.74175e+01 -7.62155e+00
       O -2.11986e+01 -1.45384e+01 -6.22686e-02
       H -2.17552e+01 -1.52942e+01 -4.20456e-01
       H -2.09419e+01 -1.49201e+01  8.13199e-01
       O -2.50690e+01  2.26483e+01 -1.40385e+01
       H -2.56969e+01  2.27419e+01 -1.32754e+01
       H -2.57348e+01  2.24152e+01 -1.46873e+01
       O  8.55354e+00  5.05001e+00  1.75577e+00
       H  8.90409e+00  4.20141e+00  1.47735e+00
       H  7.61156e+00  4.88346e+00  1.61942e+00
       O -1.00333e+01  1.76854e+00  3.83589e+00
       H -1.05470e+01  1.48632e+00  4.65390e+00
       H -1.07332e+01  2.35043e+00  3.41697e+00
       O -2.03961e+01 -1.63166e+01 -1.33911e+01
       H -2.05773e+01 -1.65273e+01 -1.24554e+01
       H -1.99701e+01 -1.54609e+01 -1.33218e+01
       O -4.92254e+01 -2.43380e+01  8.22553e+00
       H -4.94583e+01 -2.44338e+01  7.27486e+00
       H -4.88245e+01 -2.33839e+01  8.10004e+00
       O -1.42404e+01  8.99858e+00 -2.05477e+01
       H -1.34957e+01  8.70572e+00 -2.10682e+01
       H -1.47024e+01  8.15600e+00 -2.04197e+01
       O -1.56067e+01 -2.05650e+01 -3.22488e+01
       H -1.52148e+01 -2.13793e+01 -3.25569e+01
       H -1.56883e+01 -2.00579e+01 -3.30879e+01
       O -1.17447e+01 -1.68566e+01  4.17024e+00
       H -1.13523e+01 -1.74358e+01  4.80113e+00
       H -1.10645e+01 -1.67142e+01  3.50547e+00
       O -1.43876e+01 -1.63620e+00 -2.62057e+01
       H -1.53175e+01 -1.57252e+00 -2.63042e+01
       H -1.42301e+01 -1.57767e+00 -2.52762e+01
       O -1.56943e+01 -6.55786e+00 -1.21446e+01
       H -1.56227e+01 -7.24952e+00 -1.27981e+01
       H -1.66713e+01 -6.52986e+00 -1.20487e+01
       O -2.48973e+00 -1.28059e+01  1.81548e+00
       H -2.87004e+00 -1.29051e+01  9.22742e-01
       H -1.64129e+00 -1.32469e+01  1.74091e+00
       O -3.36237e+01 -1.50333e+00 -2.27897e+01
       H -3.30677e+01 -9.47696e-01 -2.34497e+01
       H -3.35172e+01 -9.22311e-01 -2.19583e+01
       O -3.33537e+01 -2.12867e+01 -7.83317e+00
       H -3.28256e+01 -2.19929e+01 -7.37615e+00
       H -3.35620e+01 -2.06866e+01 -7.13118e+00
       O -2.00579e+01 -2.53039e+01 -7.13796e+00
       H -1.93411e+01 -2.51776e+01 -6.41665e+00
       H -2.06121e+01 -2.45565e+01 -6.91202e+00
       O -1.23299e+01 -1.53163e+01 -4.03048e+01
       H -1.27318e+01 -1.44648e+01 -4.00579e+01
       H -1.20193e+01 -1.56386e+01 -3.94175e+01
       O -1.82254e+01 -8.41966e+00 -3.86379e+00
       H -1.82005e+01 -9.03596e+00 -4.63219e+00
       H -1.84188e+01 -9.08666e+00 -3.15105e+00
       O -2.47945e+01 -2.67221e+01 -3.52090e+01
       H -2.43973e+01 -2.64771e+01 -3.43275e+01