4
# CELL(abcABC): 1000.00000  1000.00000  1000.00000    90.00000    90.00000    90.00000  Step:           0  Bead:       0 positions{angstrom}  cell{angstrom}
       O -3.12525e+00  1.05733e+00  3.65726e-01
       H -3.69164e+00  7.31229e-01  1.03395e+00
       H -3.05492e+00  5.89650e-01 -5.10812e-01
       H -3.03114e+00  1.96652e+00  3.57231e-01
4
# CELL(abcABC): 1000.00000  1000.00000  1000.00000    90.00000    90.00000    90.00000  Step:           1  Bead:       0 positions{angstrom}  cell{angstrom}
       O -3.12345e+00  1.05737e+00  3.65040e-01
       H -3.70344e+00  7.22848e-01  1.03988e+00
       H -3.05508e+00  5.89419e-01 -5.08917e-01
       H -3.04784e+00  1.97443e+00  3.60294e-01
4
# CELL(abcABC): 1000.00000  1000.00000  1000.00000    90.00000    90.00000    90.00000  Step:           2  Bead:       0 positions{angstrom}  cell{angstrom}
       O -3.12155e+00  1.05693e+00  3.64196e-01
       H -3.71822e+00  7.13094e-01  1.04801e+00
       H -3.05429e+00  5.90046e-01 -5.05795e-01
       H -3.06398e+00  1.99056e+00  3.62446e-01
4
# CELL(abcABC): 1000.00000  1000.00000  1000.00000    90.00000    90.00000    90.00000  Step:           3  Bead:       0 positions{angstrom}  cell{angstrom}
       O -3.11950e+00  1.05618e+00  3.63277e-01
       H -3.73374e+00  7.01463e-01  1.05780e+00
       H -3.05447e+00  5.92584e-01 -5.01209e-01
       H -3.08077e+00  2.01169e+00  3.62655e-01
4
# CELL(abcABC): 1000.00000  1000.00000  1000.00000    90.00000    90.00000    90.00000  Step:           4  Bead:       0 positions{angstrom}  cell{angstrom}
       O -3.11744e+00  1.05528e+00  3.62601e-01
       H -3.74924e+00  6.88777e-01  1.06467e+00
       H -3.05475e+00  5.96400e-01 -4.96875e-01
       H -3.09769e+00  2.03483e+00  3.62177e-01
4
# CELL(abcABC): 1000.00000  1000.00000  1000.00000    90.00000    90.00000    90.00000  Step:           5  Bead:       0 positions{angstrom}  cell{angstrom}
       O -3.11531e+00  1.05424e+00  3.62267e-01
       H -3.76408e+00  6.76925e-01  1.06811e+00
       H -3.05643e+00  6.01753e-01 -4.92033e-01
       H -3.11501e+00  2.05782e+00  3.59201e-01
4
# CELL(abcABC): 1000.00000  1000.00000  1000.00000    90.00000    90.00000    90.00000  Step:           6  Bead:       0 positions{angstrom}  cell{angstrom}
       O -3.11314e+00  1.05340e+00  3.62385e-01
       H -3.77650e+00  6.66671e-01  1.06652e+00
       H -3.05953e+00  6.05512e-01 -4.89524e-01
       H -3.13385e+00  2.07760e+00  3.56399e-01
4
# CELL(abcABC): 1000.00000  1000.00000  1000.00000    90.00000    90.00000    90.00000  Step:           7  Bead:       0 positions{angstrom}  cell{angstrom}
       O -3.11114e+00  1.05270e+00  3.62793e-01
       H -3.78457e+00  6.58099e-01  1.06163e+00
       H -3.06363e+00  6.08630e-01 -4.88088e-01
       H -3.15353e+00  2.09417e+00  3.53381e-01
4
# CELL(abcABC): 1000.00000  1000.00000  1000.00000    90.00000    90.00000    90.00000  Step:           8  Bead:       0 positions{angstrom}  cell{angstrom}
       O -3.10936e+00  1.05233e+00  3.63761e-01
       H -3.78841e+00  6.51404e-01  1.05135e+00
       H -3.06754e+00  6.10307e-01 -4.89505e-01
       H -3.17404e+00  2.10510e+00  3.49718e-01
4
# CELL(abcABC): 1000.00000  1000.00000  1000.00000    90.00000    90.00000    90.00000  Step:           9  Bead:       0 positions{angstrom}  cell{angstrom}
       O -3.10777e+00  1.05240e+00  3.65077e-01
       H -3.78895e+00  6.45733e-01  1.03768e+00
       H -3.07122e+00  6.11574e-01 -4.92438e-01
       H -3.19507e+00  2.10832e+00  3.45433e-01
4
# CELL(abcABC): 1000.00000  1000.00000  1000.00000    90.00000    90.00000    90.00000  Step:          10  Bead:       0 positions{angstrom}  cell{angstrom}
       O -3.10632e+00  1.05278e+00  3.66932e-01
       H -3.78626e+00  6.41784e-01  1.01918e+00
       H -3.07547e+00  6.13065e-01 -4.97875e-01
       H -3.21641e+00  2.10479e+00  3.39924e-01
4
# CELL(abcABC): 1000.00000  1000.00000  1000.00000    90.00000    90.00000    90.00000  Step:          11  Bead:       0 positions{angstrom}  cell{angstrom}
       O -3.10500e+00  1.05352e+00  3.69248e-01
       H -3.78070e+00  6.40019e-01  9.96090e-01
       H -3.08169e+00  6.14075e-01 -5.04871e-01
       H -3.23676e+00  2.09375e+00  3.33237e-01
4
# CELL(abcABC): 1000.00000  1000.00000  1000.00000    90.00000    90.00000    90.00000  Step:          12  Bead:       0 positions{angstrom}  cell{angstrom}
       O -3.10389e+00  1.05465e+00  3.71829e-01
       H -3.77211e+00  6.39068e-01  9.70543e-01
       H -3.08863e+00  6.14035e-01 -5.13196e-01
       H -3.25602e+00  2.07691e+00  3.26145e-01
4
# CELL(abcABC): 1000.00000  1000.00000  1000.00000    90.00000    90.00000    90.00000  Step:          13  Bead:       0 positions{angstrom}  cell{angstrom}
       O -3.10286e+00  1.05605e+00  3.74416e-01
       H -3.76308e+00  6.38957e-01  9.44655e-01
       H -3.09481e+00  6.14470e-01 -5.20869e-01
       H -3.27522e+00  2.05422e+00  3.18638e-01
4
# CELL(abcABC): 1000.00000  1000.00000  1000.00000    90.00000    90.00000    90.00000  Step:          14  Bead:       0 positions{angstrom}  cell{angstrom}
       O -3.10181e+00  1.05764e+00  3.76822e-01
       H -3.75398e+00  6.37856e-01  9.20374e-01
       H -3.10085e+00  6.16524e-01 -5.27066e-01
       H -3.29493e+00  2.02809e+00  3.10929e-01
4
# CELL(abcABC): 1000.00000  1000.00000  1000.00000    90.00000    90.00000    90.00000  Step:          15  Bead:       0 positions{angstrom}  cell{angstrom}
       O -3.10050e+00  1.05922e+00  3.78712e-01
       H -3.74995e+00  6.34429e-01  9.01230e-01
       H -3.10771e+00  6.20409e-01 -5.30939e-01
       H -3.31297e+00  2.00259e+00  3.03948e-01
4
# CELL(abcABC): 1000.00000  1000.00000  1000.00000    90.00000    90.00000    90.00000  Step:          16  Bead:       0 positions{angstrom}  cell{angstrom}
       O -3.09893e+00  1.06070e+00  3.80207e-01
       H -3.74923e+00  6.28056e-01  8.85898e-01
       H -3.11478e+00  6.26839e-01 -5.32303e-01
       H -3.33146e+00  1.97901e+00  2.96919e-01
4
# CELL(abcABC): 1000.00000  1000.00000  1000.00000    90.00000    90.00000    90.00000  Step:          17  Bead:       0 positions{angstrom}  cell{angstrom}
       O -3.09692e+00  1.06202e+00  3.81268e-01
       H -3.75272e+00  6.19166e-01  8.75514e-01
       H -3.12277e+00  6.35396e-01 -5.32208e-01
       H -3.35196e+00  1.95845e+00  2.90351e-01
4
# CELL(abcABC): 1000.00000  1000.00000  1000.00000    90.00000    90.00000    90.00000  Step:          18  Bead:       0 positions{angstrom}  cell{angstrom}
       O -3.09449e+00  1.06295e+00  3.81928e-01
       H -3.76188e+00  6.08243e-01  8.69913e-01
       H -3.12941e+00  6.45232e-01 -5.30037e-01
       H -3.37472e+00  1.94471e+00  2.83310e-01
4
# CELL(abcABC): 1000.00000  1000.00000  1000.00000    90.00000    90.00000    90.00000  Step:          19  Bead:       0 positions{angstrom}  cell{angstrom}
       O -3.09183e+00  1.06356e+00  3.82254e-01
       H -3.77414e+00  5.95011e-01  8.68579e-01
       H -3.13642e+00  6.55411e-01 -5.26899e-01
       H -3.39771e+00  1.93814e+00  2.76330e-01
4
# CELL(abcABC): 1000.00000  1000.00000  1000.00000    90.00000    90.00000    90.00000  Step:          20  Bead:       0 positions{angstrom}  cell{angstrom}
       O -3.08895e+00  1.06382e+00  3.82430e-01
       H -3.78817e+00  5.81072e-01  8.68498e-01
       H -3.14385e+00  6.66162e-01 -5.22540e-01
       H -3.42195e+00  1.93722e+00  2.69255e-01
4
# CELL(abcABC): 1000.00000  1000.00000  1000.00000    90.00000    90.00000    90.00000  Step:          21  Bead:       0 positions{angstrom}  cell{angstrom}
       O -3.08607e+00  1.06373e+00  3.82587e-01
       H -3.80282e+00  5.66536e-01  8.68713e-01
       H -3.14900e+00  6.77438e-01 -5.17070e-01
       H -3.44777e+00  1.94187e+00  2.61090e-01
4
# CELL(abcABC): 1000.00000  1000.00000  1000.00000    90.00000    90.00000    90.00000  Step:          22  Bead:       0 positions{angstrom}  cell{angstrom}
       O -3.08335e+00  1.06332e+00  3.82859e-01
       H -3.81729e+00  5.52018e-01  8.70304e-01
       H -3.15114e+00  6.88371e-01 -5.14042e-01
       H -3.47429e+00  1.95195e+00  2.52145e-01
4
# CELL(abcABC): 1000.00000  1000.00000  1000.00000    90.00000    90.00000    90.00000  Step:          23  Bead:       0 positions{angstrom}  cell{angstrom}
       O -3.08092e+00  1.06278e+00  3.83426e-01
       H -3.82901e+00  5.39828e-01  8.70849e-01
       H -3.15133e+00  6.98732e-01 -5.12254e-01
       H -3.50098e+00  1.96233e+00  2.40821e-01
4
# CELL(abcABC): 1000.00000  1000.00000  1000.00000    90.00000    90.00000    90.00000  Step:          24  Bead:       0 positions{angstrom}  cell{angstrom}
       O -3.07890e+00  1.06214e+00  3.84159e-01
       H -3.83661e+00  5.29088e-01  8.70193e-01
       H -3.14994e+00  7.08684e-01 -5.12472e-01
       H -3.52685e+00  1.97329e+00  2.30052e-01
4
# CELL(abcABC): 1000.00000  1000.00000  1000.00000    90.00000    90.00000    90.00000  Step:          25  Bead:       0 positions{angstrom}  cell{angstrom}
       O -3.07732e+00  1.06168e+00  3.84981e-01
       H -3.84017e+00  5.20224e-01  8.68819e-01
       H -3.14762e+00  7.16206e-01 -5.15134e-01
       H -3.55070e+00  1.98185e+00  2.21043e-01
4
# CELL(abcABC): 1000.00000  1000.00000  1000.00000    90.00000    90.00000    90.00000  Step:          26  Bead:       0 positions{angstrom}  cell{angstrom}
       O -3.07627e+00  1.06149e+00  3.85942e-01
       H -3.83931e+00  5.13801e-01  8.65008e-01
       H -3.14367e+00  7.21528e-01 -5.20594e-01
       H -3.57213e+00  1.98611e+00  2.15059e-01
4
# CELL(abcABC): 1000.00000  1000.00000  1000.00000    90.00000    90.00000    90.00000  Step:          27  Bead:       0 positions{angstrom}  cell{angstrom}
       O -3.07591e+00  1.06149e+00  3.87049e-01
       H -3.83416e+00  5.11435e-01  8.58775e-01
       H -3.13829e+00  7.24169e-01 -5.28545e-01
       H -3.58839e+00  1.98583e+00  2.11664e-01
4
# CELL(abcABC): 1000.00000  1000.00000  1000.00000    90.00000    90.00000    90.00000  Step:          28  Bead:       0 positions{angstrom}  cell{angstrom}
       O -3.07609e+00  1.06172e+00  3.88143e-01
       H -3.82588e+00  5.10401e-01  8.50817e-01
       H -3.13088e+00  7.25349e-01 -5.37582e-01
       H -3.60126e+00  1.98191e+00  2.11302e-01
4
# CELL(abcABC): 1000.00000  1000.00000  1000.00000    90.00000    90.00000    90.00000  Step:          29  Bead:       0 positions{angstrom}  cell{angstrom}
       O -3.07687e+00  1.06215e+00  3.89217e-01
       H -3.81321e+00  5.12120e-01  8.40177e-01
       H -3.12294e+00  7.25255e-01 -5.47018e-01
       H -3.60943e+00  1.97345e+00  2.14321e-01
4
# CELL(abcABC): 1000.00000  1000.00000  1000.00000    90.00000    90.00000    90.00000  Step:          30  Bead:       0 positions{angstrom}  cell{angstrom}
       O -3.07819e+00  1.06270e+00  3.90128e-01
       H -3.79731e+00  5.16549e-01  8.29606e-01
       H -3.11380e+00  7.24304e-01 -5.55464e-01
       H -3.61364e+00  1.96130e+00  2.18885e-01
4
# CELL(abcABC): 1000.00000  1000.00000  1000.00000    90.00000    90.00000    90.00000  Step:          31  Bead:       0 positions{angstrom}  cell{angstrom}
       O -3.08007e+00  1.06335e+00  3.90875e-01
       H -3.77823e+00  5.21813e-01  8.19335e-01
       H -3.10266e+00  7.24054e-01 -5.63117e-01
       H -3.61396e+00  1.94601e+00  2.24951e-01
4
# CELL(abcABC): 1000.00000  1000.00000  1000.00000    90.00000    90.00000    90.00000  Step:          32  Bead:       0 positions{angstrom}  cell{angstrom}
       O -3.08224e+00  1.06431e+00  3.91125e-01
       H -3.76003e+00  5.24482e-01  8.10811e-01
       H -3.08969e+00  7.24993e-01 -5.67406e-01
       H -3.61076e+00  1.92718e+00  2.33798e-01
4
# CELL(abcABC): 1000.00000  1000.00000  1000.00000    90.00000    90.00000    90.00000  Step:          33  Bead:       0 positions{angstrom}  cell{angstrom}
       O -3.08454e+00  1.06561e+00  3.90882e-01
       H -3.74394e+00  5.24272e-01  8.05638e-01
       H -3.07518e+00  7.25084e-01 -5.68652e-01
       H -3.60480e+00  1.90668e+00  2.44065e-01
4
# CELL(abcABC): 1000.00000  1000.00000  1000.00000    90.00000    90.00000    90.00000  Step:          34  Bead:       0 positions{angstrom}  cell{angstrom}
       O -3.08671e+00  1.06711e+00  3.90324e-01
       H -3.73022e+00  5.20421e-01  8.03191e-01
       H -3.06144e+00  7.24942e-01 -5.66836e-01
       H -3.59786e+00  1.88675e+00  2.53560e-01
4
# CELL(abcABC): 1000.00000  1000.00000  1000.00000    90.00000    90.00000    90.00000  Step:          35  Bead:       0 positions{angstrom}  cell{angstrom}
       O -3.08876e+00  1.06867e+00  3.89365e-01
       H -3.71837e+00  5.12169e-01  8.03341e-01
       H -3.04804e+00  7.26052e-01 -5.61705e-01
       H -3.59049e+00  1.86910e+00  2.63508e-01
4
# CELL(abcABC): 1000.00000  1000.00000  1000.00000    90.00000    90.00000    90.00000  Step:          36  Bead:       0 positions{angstrom}  cell{angstrom}
       O -3.09059e+00  1.07012e+00  3.88072e-01
       H -3.71006e+00  4.99273e-01  8.06401e-01
       H -3.03371e+00  7.28751e-01 -5.55183e-01
       H -3.58410e+00  1.85638e+00  2.74446e-01
4
# CELL(abcABC): 1000.00000  1000.00000  1000.00000    90.00000    90.00000    90.00000  Step:          37  Bead:       0 positions{angstrom}  cell{angstrom}
       O -3.09216e+00  1.07144e+00  3.86401e-01
       H -3.70440e+00  4.82898e-01  8.14255e-01
       H -3.01819e+00  7.31055e-01 -5.47538e-01
       H -3.58036e+00  1.84952e+00  2.85476e-01
4
# CELL(abcABC): 1000.00000  1000.00000  1000.00000    90.00000    90.00000    90.00000  Step:          38  Bead:       0 positions{angstrom}  cell{angstrom}
       O -3.09326e+00  1.07244e+00  3.84733e-01
       H -3.70199e+00  4.63011e-01  8.23145e-01
       H -3.00191e+00  7.32306e-01 -5.39289e-01
       H -3.58164e+00  1.85225e+00  2.94803e-01
4
# CELL(abcABC): 1000.00000  1000.00000  1000.00000    90.00000    90.00000    90.00000  Step:          39  Bead:       0 positions{angstrom}  cell{angstrom}
       O -3.09428e+00  1.07319e+00  3.82916e-01
       H -3.69978e+00  4.40667e-01  8.33699e-01
       H -2.98454e+00  7.32283e-01 -5.30014e-01
       H -3.58496e+00  1.86273e+00  3.03820e-01
4
# CELL(abcABC): 1000.00000  1000.00000  1000.00000    90.00000    90.00000    90.00000  Step:          40  Bead:       0 positions{angstrom}  cell{angstrom}
       O -3.09523e+00  1.07352e+00  3.80979e-01
       H -3.69718e+00  4.18174e-01  8.45274e-01
       H -2.96623e+00  7.32133e-01 -5.19782e-01
       H -3.59075e+00  1.88013e+00  3.12768e-01
4
# CELL(abcABC): 1000.00000  1000.00000  1000.00000    90.00000    90.00000    90.00000  Step:          41  Bead:       0 positions{angstrom}  cell{angstrom}
       O -3.09621e+00  1.07351e+00  3.79161e-01
       H -3.69346e+00  3.97600e-01  8.55478e-01
       H -2.94661e+00  7.31910e-01 -5.10800e-01
       H -3.59859e+00  1.90107e+00  3.22434e-01
4
# CELL(abcABC): 1000.00000  1000.00000  1000.00000    90.00000    90.00000    90.00000  Step:          42  Bead:       0 positions{angstrom}  cell{angstrom}
       O -3.09746e+00  1.07342e+00  3.77660e-01
       H -3.68608e+00  3.77515e-01  8.63604e-01
       H -2.92604e+00  7.31157e-01 -5.03759e-01
       H -3.60675e+00  1.92335e+00  3.31086e-01
4
# CELL(abcABC): 1000.00000  1000.00000  1000.00000    90.00000    90.00000    90.00000  Step:          43  Bead:       0 positions{angstrom}  cell{angstrom}
       O -3.09895e+00  1.07315e+00  3.76505e-01
       H -3.67630e+00  3.61470e-01  8.69039e-01
       H -2.90465e+00  7.31148e-01 -4.99227e-01
       H -3.61422e+00  1.94366e+00  3.39454e-01
4
# CELL(abcABC): 1000.00000  1000.00000  1000.00000    90.00000    90.00000    90.00000  Step:          44  Bead:       0 positions{angstrom}  cell{angstrom}
       O -3.10074e+00  1.07289e+00  3.75716e-01
       H -3.66346e+00  3.48509e-01  8.71163e-01
       H -2.88257e+00  7.30243e-01 -4.97991e-01
       H -3.62070e+00  1.96173e+00  3.48627e-01
4
# CELL(abcABC): 1000.00000  1000.00000  1000.00000    90.00000    90.00000    90.00000  Step:          45  Bead:       0 positions{angstrom}  cell{angstrom}
       O -3.10279e+00  1.07267e+00  3.75341e-01
       H -3.64837e+00  3.39684e-01  8.69814e-01
       H -2.85934e+00  7.28512e-01 -4.99965e-01
       H -3.62654e+00  1.97564e+00  3.57898e-01
4
# CELL(abcABC): 1000.00000  1000.00000  1000.00000    90.00000    90.00000    90.00000  Step:          46  Bead:       0 positions{angstrom}  cell{angstrom}
       O -3.10521e+00  1.07255e+00  3.75301e-01
       H -3.63082e+00  3.35427e-01  8.65324e-01
       H -2.83610e+00  7.26192e-01 -5.03928e-01
       H -3.62882e+00  1.98416e+00  3.66990e-01
4
# CELL(abcABC): 1000.00000  1000.00000  1000.00000    90.00000    90.00000    90.00000  Step:          47  Bead:       0 positions{angstrom}  cell{angstrom}
       O -3.10791e+00  1.07240e+00  3.75601e-01
       H -3.61118e+00  3.34458e-01  8.58737e-01
       H -2.81297e+00  7.24899e-01 -5.09152e-01
       H -3.62882e+00  1.98877e+00  3.74038e-01
4
# CELL(abcABC): 1000.00000  1000.00000  1000.00000    90.00000    90.00000    90.00000  Step:          48  Bead:       0 positions{angstrom}  cell{angstrom}
       O -3.11080e+00  1.07245e+00  3.75999e-01
       H -3.58969e+00  3.35270e-01  8.50684e-01
       H -2.79058e+00  7.25551e-01 -5.14333e-01
       H -3.62677e+00  1.98659e+00  3.80952e-01
4
# CELL(abcABC): 1000.00000  1000.00000  1000.00000    90.00000    90.00000    90.00000  Step:          49  Bead:       0 positions{angstrom}  cell{angstrom}
       O -3.11386e+00  1.07262e+00  3.76277e-01
       H -3.56762e+00  3.37362e-01  8.42222e-01
       H -2.76821e+00  7.27742e-01 -5.17562e-01
       H -3.62274e+00  1.97962e+00  3.88236e-01
4
# CELL(abcABC): 1000.00000  1000.00000  1000.00000    90.00000    90.00000    90.00000  Step:          50  Bead:       0 positions{angstrom}  cell{angstrom}
       O -3.11674e+00  1.07300e+00  3.76536e-01
       H -3.54634e+00  3.40017e-01  8.33411e-01
       H -2.74919e+00  7.31402e-01 -5.18056e-01
       H -3.61721e+00  1.96724e+00  3.93430e-01
4
# CELL(abcABC): 1000.00000  1000.00000  1000.00000    90.00000    90.00000    90.00000  Step:          51  Bead:       0 positions{angstrom}  cell{angstrom}
       O -3.11951e+00  1.07353e+00  3.76593e-01
       H -3.52692e+00  3.41240e-01  8.25124e-01
       H -2.73249e+00  7.37811e-01 -5.15561e-01
       H -3.60934e+00  1.95119e+00  3.98303e-01
4
# CELL(abcABC): 1000.00000  1000.00000  1000.00000    90.00000    90.00000    90.00000  Step:          52  Bead:       0 positions{angstrom}  cell{angstrom}
       O -3.12201e+00  1.07430e+00  3.76473e-01
       H -3.51031e+00  3.39851e-01  8.18767e-01
       H -2.71830e+00  7.46231e-01 -5.10902e-01
       H -3.60049e+00  1.93196e+00  4.01907e-01
4
# CELL(abcABC): 1000.00000  1000.00000  1000.00000    90.00000    90.00000    90.00000  Step:          53  Bead:       0 positions{angstrom}  cell{angstrom}
       O -3.12416e+00  1.07512e+00  3.75985e-01
       H -3.49613e+00  3.35619e-01  8.14111e-01
       H -2.70678e+00  7.58689e-01 -5.02354e-01
       H -3.59212e+00  1.91075e+00  4.05770e-01
4
# CELL(abcABC): 1000.00000  1000.00000  1000.00000    90.00000    90.00000    90.00000  Step:          54  Bead:       0 positions{angstrom}  cell{angstrom}
       O -3.12581e+00  1.07598e+00  3.74887e-01
       H -3.48530e+00  3.26645e-01  8.13543e-01
       H -2.69793e+00  7.74365e-01 -4.90175e-01
       H -3.58556e+00  1.89029e+00  4.11583e-01
4
# CELL(abcABC): 1000.00000  1000.00000  1000.00000    90.00000    90.00000    90.00000  Step:          55  Bead:       0 positions{angstrom}  cell{angstrom}
       O -3.12698e+00  1.07665e+00  3.73454e-01
       H -3.47805e+00  3.14379e-01  8.16587e-01
       H -2.69089e+00  7.92362e-01 -4.75279e-01
       H -3.58127e+00  1.87392e+00  4.16398e-01
4
# CELL(abcABC): 1000.00000  1000.00000  1000.00000    90.00000    90.00000    90.00000  Step:          56  Bead:       0 positions{angstrom}  cell{angstrom}
       O -3.12769e+00  1.07689e+00  3.71816e-01
       H -3.47102e+00  3.00040e-01  8.22459e-01
       H -2.68537e+00  8.11836e-01 -4.60644e-01
       H -3.58264e+00  1.86507e+00  4.21890e-01
4
# CELL(abcABC): 1000.00000  1000.00000  1000.00000    90.00000    90.00000    90.00000  Step:          57  Bead:       0 positions{angstrom}  cell{angstrom}
       O -3.12791e+00  1.07656e+00  3.70057e-01
       H -3.46402e+00  2.85297e-01  8.30278e-01
       H -2.68151e+00  8.32010e-01 -4.45623e-01
       H -3.58996e+00  1.86478e+00  4.26967e-01
4
# CELL(abcABC): 1000.00000  1000.00000  1000.00000    90.00000    90.00000    90.00000  Step:          58  Bead:       0 positions{angstrom}  cell{angstrom}
       O -3.12787e+00  1.07577e+00  3.68392e-01
       H -3.45676e+00  2.70156e-01  8.38531e-01
       H -2.67685e+00  8.52652e-01 -4.32294e-01
       H -3.60246e+00  1.87188e+00  4.31809e-01
4
# CELL(abcABC): 1000.00000  1000.00000  1000.00000    90.00000    90.00000    90.00000  Step:          59  Bead:       0 positions{angstrom}  cell{angstrom}
       O -3.12775e+00  1.07451e+00  3.66874e-01
       H -3.44875e+00  2.56697e-01  8.46663e-01
       H -2.67036e+00  8.73628e-01 -4.21389e-01
       H -3.61897e+00  1.88437e+00  4.36875e-01
4
# CELL(abcABC): 1000.00000  1000.00000  1000.00000    90.00000    90.00000    90.00000  Step:          60  Bead:       0 positions{angstrom}  cell{angstrom}
       O -3.12772e+00  1.07303e+00  3.65815e-01
       H -3.44143e+00  2.45379e-01  8.53972e-01
       H -2.66052e+00  8.93302e-01 -4.17514e-01
       H -3.63655e+00  1.89957e+00  4.42505e-01
4
# CELL(abcABC): 1000.00000  1000.00000  1000.00000    90.00000    90.00000    90.00000  Step:          61  Bead:       0 positions{angstrom}  cell{angstrom}
       O -3.12801e+00  1.07146e+00  3.65272e-01
       H -3.43252e+00  2.36730e-01  8.59551e-01
       H -2.64644e+00  9.11807e-01 -4.20758e-01
       H -3.65494e+00  1.91465e+00  4.48789e-01
4
# CELL(abcABC): 1000.00000  1000.00000  1000.00000    90.00000    90.00000    90.00000  Step:          62  Bead:       0 positions{angstrom}  cell{angstrom}
       O -3.12852e+00  1.06996e+00  3.65331e-01
       H -3.42348e+00  2.30814e-01  8.62828e-01
       H -2.63099e+00  9.28908e-01 -4.29466e-01
       H -3.67124e+00  1.92718e+00  4.53284e-01
4
# CELL(abcABC): 1000.00000  1000.00000  1000.00000    90.00000    90.00000    90.00000  Step:          63  Bead:       0 positions{angstrom}  cell{angstrom}
       O -3.12929e+00  1.06844e+00  3.65622e-01
       H -3.41319e+00  2.29573e-01  8.64522e-01
       H -2.61428e+00  9.44462e-01 -4.41658e-01
       H -3.68614e+00  1.93700e+00  4.59153e-01
4
# CELL(abcABC): 1000.00000  1000.00000  1000.00000    90.00000    90.00000    90.00000  Step:          64  Bead:       0 positions{angstrom}  cell{angstrom}
       O -3.13035e+00  1.06707e+00  3.66136e-01
       H -3.40084e+00  2.32136e-01  8.65184e-01
       H -2.59692e+00  9.59131e-01 -4.55129e-01
       H -3.69903e+00  1.94154e+00  4.63813e-01
4
# CELL(abcABC): 1000.00000  1000.00000  1000.00000    90.00000    90.00000    90.00000  Step:          65  Bead:       0 positions{angstrom}  cell{angstrom}
       O -3.13161e+00  1.06586e+00  3.66794e-01
       H -3.38866e+00  2.38360e-01  8.62981e-01
       H -2.57985e+00  9.74508e-01 -4.68068e-01
       H -3.70826e+00  1.93916e+00  4.68504e-01
4
# CELL(abcABC): 1000.00000  1000.00000  1000.00000    90.00000    90.00000    90.00000  Step:          66  Bead:       0 positions{angstrom}  cell{angstrom}
       O -3.13300e+00  1.06483e+00  3.67342e-01
       H -3.37631e+00  2.49379e-01  8.60149e-01
       H -2.56467e+00  9.87951e-01 -4.78270e-01
       H -3.71364e+00  1.93109e+00  4.72843e-01
4
# CELL(abcABC): 1000.00000  1000.00000  1000.00000    90.00000    90.00000    90.00000  Step:          67  Bead:       0 positions{angstrom}  cell{angstrom}
       O -3.13436e+00  1.06421e+00  3.67734e-01
       H -3.36389e+00  2.60536e-01  8.55937e-01
       H -2.55185e+00  1.00105e+00 -4.84222e-01
       H -3.71741e+00  1.91656e+00  4.76784e-01
4
# CELL(abcABC): 1000.00000  1000.00000  1000.00000    90.00000    90.00000    90.00000  Step:          68  Bead:       0 positions{angstrom}  cell{angstrom}
       O -3.13568e+00  1.06395e+00  3.68009e-01
       H -3.35144e+00  2.70906e-01  8.51712e-01
       H -2.54210e+00  1.01380e+00 -4.87200e-01
       H -3.71865e+00  1.89753e+00  4.79625e-01
4
# CELL(abcABC): 1000.00000  1000.00000  1000.00000    90.00000    90.00000    90.00000  Step:          69  Bead:       0 positions{angstrom}  cell{angstrom}
       O -3.13678e+00  1.06425e+00  3.67747e-01
       H -3.34036e+00  2.77591e-01  8.50292e-01
       H -2.53677e+00  1.02622e+00 -4.84226e-01
       H -3.71757e+00  1.87377e+00  4.82225e-01
4
# CELL(abcABC): 1000.00000  1000.00000  1000.00000    90.00000    90.00000    90.00000  Step:          70  Bead:       0 positions{angstrom}  cell{angstrom}
       O -3.13781e+00  1.06481e+00  3.67085e-01
       H -3.33004e+00  2.81566e-01  8.49700e-01
       H -2.53499e+00  1.03898e+00 -4.76485e-01
       H -3.71337e+00  1.84809e+00  4.85576e-01
4
# CELL(abcABC): 1000.00000  1000.00000  1000.00000    90.00000    90.00000    90.00000  Step:          71  Bead:       0 positions{angstrom}  cell{angstrom}
       O -3.13848e+00  1.06577e+00  3.66074e-01
       H -3.32161e+00  2.80384e-01  8.49824e-01
       H -2.53715e+00  1.05079e+00 -4.64515e-01
       H -3.70896e+00  1.82224e+00  4.89536e-01
4
# CELL(abcABC): 1000.00000  1000.00000  1000.00000    90.00000    90.00000    90.00000  Step:          72  Bead:       0 positions{angstrom}  cell{angstrom}
       O -3.13882e+00  1.06679e+00  3.64629e-01
       H -3.31386e+00  2.75369e-01  8.52247e-01
       H -2.54207e+00  1.06236e+00 -4.47900e-01
       H -3.70629e+00  1.79949e+00  4.93439e-01
4
# CELL(abcABC): 1000.00000  1000.00000  1000.00000    90.00000    90.00000    90.00000  Step:          73  Bead:       0 positions{angstrom}  cell{angstrom}
       O -3.13873e+00  1.06782e+00  3.62954e-01
       H -3.30700e+00  2.66694e-01  8.56096e-01
       H -2.54910e+00  1.07391e+00 -4.28605e-01
       H -3.70759e+00  1.78033e+00  4.96883e-01
4
# CELL(abcABC): 1000.00000  1000.00000  1000.00000    90.00000    90.00000    90.00000  Step:          74  Bead:       0 positions{angstrom}  cell{angstrom}
       O -3.13829e+00  1.06858e+00  3.61275e-01
       H -3.30021e+00  2.55662e-01  8.59490e-01
       H -2.55700e+00  1.08513e+00 -4.09541e-01
       H -3.71353e+00  1.76811e+00  5.01067e-01
4
# CELL(abcABC): 1000.00000  1000.00000  1000.00000    90.00000    90.00000    90.00000  Step:          75  Bead:       0 positions{angstrom}  cell{angstrom}
       O -3.13738e+00  1.06904e+00  3.59607e-01
       H -3.29398e+00  2.42400e-01  8.62393e-01
       H -2.56492e+00  1.09545e+00 -3.90804e-01
       H -3.72632e+00  1.76366e+00  5.05905e-01
4
# CELL(abcABC): 1000.00000  1000.00000  1000.00000    90.00000    90.00000    90.00000  Step:          76  Bead:       0 positions{angstrom}  cell{angstrom}
       O -3.13640e+00  1.06902e+00  3.58031e-01
       H -3.28666e+00  2.29413e-01  8.65648e-01
       H -2.57070e+00  1.10561e+00 -3.75363e-01
       H -3.74335e+00  1.76686e+00  5.12222e-01
4
# CELL(abcABC): 1000.00000  1000.00000  1000.00000    90.00000    90.00000    90.00000  Step:          77  Bead:       0 positions{angstrom}  cell{angstrom}
       O -3.13541e+00  1.06863e+00  3.56832e-01
       H -3.27895e+00  2.18500e-01  8.67518e-01
       H -2.57306e+00  1.11602e+00 -3.64787e-01
       H -3.76447e+00  1.77343e+00  5.18814e-01
4
# CELL(abcABC): 1000.00000  1000.00000  1000.00000    90.00000    90.00000    90.00000  Step:          78  Bead:       0 positions{angstrom}  cell{angstrom}
       O -3.13462e+00  1.06802e+00  3.56360e-01
       H -3.27181e+00  2.08889e-01  8.66591e-01
       H -2.56956e+00  1.12717e+00 -3.61360e-01
       H -3.78758e+00  1.78168e+00  5.23801e-01
4
# CELL(abcABC): 1000.00000  1000.00000  1000.00000    90.00000    90.00000    90.00000  Step:          79  Bead:       0 positions{angstrom}  cell{angstrom}
       O -3.13429e+00  1.06735e+00  3.56475e-01
       H -3.26468e+00  2.02312e-01  8.64776e-01
       H -2.55957e+00  1.13763e+00 -3.65095e-01
       H -3.81002e+00  1.78835e+00  5.27535e-01
4
# CELL(abcABC): 1000.00000  1000.00000  1000.00000    90.00000    90.00000    90.00000  Step:          80  Bead:       0 positions{angstrom}  cell{angstrom}
       O -3.13447e+00  1.06665e+00  3.57046e-01
       H -3.25655e+00  1.98793e-01  8.60704e-01
       H -2.54487e+00  1.14794e+00 -3.73383e-01
       H -3.82996e+00  1.79267e+00  5.30824e-01
4
# CELL(abcABC): 1000.00000  1000.00000  1000.00000    90.00000    90.00000    90.00000  Step:          81  Bead:       0 positions{angstrom}  cell{angstrom}
       O -3.13510e+00  1.06585e+00  3.58121e-01
       H -3.24580e+00  1.98887e-01  8.53844e-01
       H -2.52805e+00  1.16009e+00 -3.84950e-01
       H -3.84751e+00  1.79321e+00  5.32198e-01
4
# CELL(abcABC): 1000.00000  1000.00000  1000.00000    90.00000    90.00000    90.00000  Step:          82  Bead:       0 positions{angstrom}  cell{angstrom}
       O -3.13603e+00  1.06530e+00  3.59378e-01
       H -3.23398e+00  2.00707e-01  8.45919e-01
       H -2.51002e+00  1.17081e+00 -3.97685e-01
       H -3.86260e+00  1.78942e+00  5.32905e-01
4
# CELL(abcABC): 1000.00000  1000.00000  1000.00000    90.00000    90.00000    90.00000  Step:          83  Bead:       0 positions{angstrom}  cell{angstrom}
       O -3.13720e+00  1.06487e+00  3.60752e-01
       H -3.22189e+00  2.04629e-01  8.37047e-01
       H -2.49294e+00  1.18149e+00 -4.09362e-01
       H -3.87323e+00  1.78155e+00  5.31636e-01
4
# CELL(abcABC): 1000.00000  1000.00000  1000.00000    90.00000    90.00000    90.00000  Step:          84  Bead:       0 positions{angstrom}  cell{angstrom}
       O -3.13844e+00  1.06471e+00  3.62129e-01
       H -3.20871e+00  2.08621e-01  8.26347e-01
       H -2.47929e+00  1.19172e+00 -4.18397e-01
       H -3.88029e+00  1.76991e+00  5.29511e-01
4
# CELL(abcABC): 1000.00000  1000.00000  1000.00000    90.00000    90.00000    90.00000  Step:          85  Bead:       0 positions{angstrom}  cell{angstrom}