11115
# CELL(abcABC):   47.66706    47.66706    47.66706    90.00000    90.00000    90.00000  Step:       10000  Bead:       0 positions{angstrom}  cell{angstrom}
       C  4.86489e+00  4.80984e+00  5.79297e+00
       H  4.22591e+00  5.47001e+00  5.14083e+00
       H  5.69227e+00  5.24606e+00  6.24303e+00
       H  4.23404e+00  4.44753e+00  6.66116e+00
       C  5.24491e+00  3.60561e+00  4.98332e+00
       O  4.49580e+00  3.12693e+00  4.11417e+00
       N  6.43514e+00  3.08270e+00  5.29373e+00
       H  7.02480e+00  3.54894e+00  5.98214e+00
       C  6.99818e+00  1.83538e+00  4.69025e+00
       H  6.12509e+00  1.32512e+00  4.31227e+00
       C  7.82511e+00  2.22219e+00  3.48612e+00
       H  8.64375e+00  2.83549e+00  3.85600e+00
       H  7.23398e+00  2.93232e+00  2.85137e+00
       C  8.22620e+00  1.18708e+00  2.50971e+00
       O  9.39959e+00  9.90879e-01  2.08152e+00
       O  7.32789e+00  4.04195e-01  2.17816e+00
       H  7.61947e+00 -3.31252e-01  1.43945e+00
       C  7.84982e+00  8.57368e-01  5.56156e+00
       O  8.88299e+00  3.42753e-01  5.15565e+00
       N  7.49058e+00  7.55258e-01  6.86910e+00
       H  8.14504e+00  3.44589e-01  7.53879e+00
       H  6.59129e+00  1.08554e+00  7.13087e+00
       O -1.58928e+01 -1.11678e+01 -5.37404e+00
       H -1.50830e+01 -1.08420e+01 -4.98956e+00
       H -1.63310e+01 -1.03994e+01 -5.72940e+00
       O -3.56249e+01 -2.10270e+01 -3.02605e+01
       H -3.54410e+01 -2.17724e+01 -3.08964e+01
       H -3.63350e+01 -2.14917e+01 -2.98154e+01
       O -1.48003e+01 -1.09031e+01 -2.98527e-01
       H -1.52048e+01 -1.02567e+01 -8.85371e-01
       H -1.41710e+01 -1.03358e+01  2.48962e-01
       O -2.41269e+01 -3.36154e+01 -1.54030e+01
       H -2.42035e+01 -3.44737e+01 -1.58756e+01
       H -2.32208e+01 -3.36281e+01 -1.52565e+01
       O -2.77322e+01 -2.06125e+01 -3.91421e+00
       H -2.82904e+01 -2.00863e+01 -4.53963e+00
       H -2.84572e+01 -2.09815e+01 -3.27653e+00
       O -2.72660e+01 -2.67656e+01 -1.91067e+01
       H -2.62870e+01 -2.67985e+01 -1.89538e+01
       H -2.71836e+01 -2.65019e+01 -2.00665e+01
       O -2.83075e+01 -2.89366e+01 -1.79959e+01
       H -2.83381e+01 -2.91429e+01 -1.89936e+01
       H -2.79472e+01 -2.79616e+01 -1.80290e+01
       O -2.22164e+01 -1.33513e+01 -1.86413e+01
       H -2.22965e+01 -1.39292e+01 -1.78231e+01
       H -2.12549e+01 -1.34261e+01 -1.88828e+01
       O -1.36066e+01 -2.80749e+01 -2.23618e+01
       H -1.29185e+01 -2.83569e+01 -2.29950e+01
       H -1.31207e+01 -2.76469e+01 -2.16245e+01
       O -3.90603e+00 -3.25880e+01 -6.07749e+00
       H -3.38012e+00 -3.22175e+01 -5.34528e+00
       H -3.89188e+00 -3.19249e+01 -6.78894e+00
       O -1.71020e+01 -9.41051e+00 -2.19640e+01
       H -1.68278e+01 -8.65014e+00 -2.25872e+01
       H -1.74486e+01 -8.93247e+00 -2.11713e+01
       O -1.73151e+00  1.28709e+01 -3.80683e+00
       H -2.56798e+00  1.28163e+01 -3.29572e+00
       H -1.58622e+00  1.37937e+01 -3.82948e+00
       O -1.51490e+01 -2.43389e+01 -2.18714e+01
       H -1.52679e+01 -2.50707e+01 -2.24194e+01
       H -1.45126e+01 -2.39385e+01 -2.24820e+01
       O -2.49405e+01 -1.52231e+01 -1.03987e+01
       H -2.41915e+01 -1.46329e+01 -1.05043e+01
       H -2.45510e+01 -1.56811e+01 -9.57632e+00
       O -3.38290e+01 -3.28430e+01 -3.85084e+01
       H -3.41488e+01 -3.22172e+01 -3.91289e+01
       H -3.35224e+01 -3.23035e+01 -3.77268e+01
       O -1.23873e+01 -1.80492e+01 -1.51831e+01
       H -1.25467e+01 -1.89137e+01 -1.55468e+01
       H -1.16780e+01 -1.81039e+01 -1.45210e+01
       O -2.95233e+01 -3.03147e+01  1.04653e+01
       H -2.86773e+01 -3.03495e+01  1.09537e+01
       H -2.92329e+01 -2.98662e+01  9.67366e+00
       O -1.52981e+01 -4.27213e+00 -2.65477e+01
       H -1.53440e+01 -3.48176e+00 -2.59226e+01
       H -1.63037e+01 -4.35864e+00 -2.65527e+01
       O -2.25482e+01 -1.75388e+01  1.15062e+01
       H -2.23895e+01 -1.76036e+01  1.24589e+01
       H -2.34930e+01 -1.73808e+01  1.14398e+01
       O -2.97634e+01  1.04884e+01 -3.41316e+01
       H -2.88688e+01  1.04466e+01 -3.37170e+01
       H -2.95228e+01  1.08689e+01 -3.49715e+01
       O -2.15495e+00 -3.04304e+01 -1.04449e+01
       H -1.24557e+00 -3.06006e+01 -9.97751e+00
       H -1.83967e+00 -2.99215e+01 -1.11953e+01
       O -3.83667e+01 -3.15047e+00 -2.41836e+01
       H -3.91594e+01 -3.41482e+00 -2.36952e+01
       H -3.76899e+01 -3.29958e+00 -2.34820e+01
       O  1.50099e+00 -6.27504e+00 -1.36050e+01
       H  1.87273e+00 -5.73863e+00 -1.43900e+01
       H  1.29139e+00 -5.61898e+00 -1.29713e+01
       O -2.85480e+01 -1.62655e+01 -1.69533e+01
       H -2.77735e+01 -1.64717e+01 -1.64679e+01
       H -2.92873e+01 -1.66895e+01 -1.65445e+01
       O -1.30595e+01 -3.83348e+01 -3.08407e+01
       H -1.29969e+01 -3.78420e+01 -3.16123e+01
       H -1.39044e+01 -3.79405e+01 -3.05532e+01
       O -1.32772e+01 -5.61812e+00 -2.39078e+01
       H -1.33799e+01 -5.24849e+00 -2.47676e+01
       H -1.39887e+01 -5.21924e+00 -2.34155e+01
       O -1.11717e+01  2.08159e+01 -8.15428e+00
       H -1.12063e+01  2.02884e+01 -8.99921e+00
       H -1.02674e+01  2.05895e+01 -7.88426e+00
       O -1.18302e+01 -5.85863e+00  5.19045e+00
       H -1.26360e+01 -6.10298e+00  5.78307e+00
       H -1.10534e+01 -5.64541e+00  5.77671e+00
       O -1.18591e+01 -1.27471e+01 -1.23028e+01
       H -1.21241e+01 -1.23153e+01 -1.31578e+01
       H -1.16137e+01 -1.36054e+01 -1.26252e+01
       O -6.37695e+00 -2.22469e+01 -6.95860e+00
       H -6.23143e+00 -2.12964e+01 -6.79466e+00
       H -6.61404e+00 -2.24685e+01 -6.03436e+00
       O  1.14359e+01  8.55776e+00 -4.27296e+01
       H  1.16598e+01  8.14122e+00 -4.18954e+01
       H  1.06423e+01  8.99967e+00 -4.24428e+01
       O  8.86706e+00 -2.70488e+01 -1.93617e+01
       H  8.39273e+00 -2.70121e+01 -1.84785e+01
       H  9.25426e+00 -2.79374e+01 -1.94064e+01
       O  9.13108e-01 -4.92949e+00 -3.29121e+00
       H  7.10475e-01 -3.99022e+00 -3.21064e+00
       H  4.61730e-01 -5.24807e+00 -4.09581e+00
       O -3.72192e+01 -1.33158e+01 -8.06758e-01
       H -3.65887e+01 -1.33573e+01 -1.49601e+00
       H -3.79247e+01 -1.27754e+01 -1.20316e+00
       O -7.81461e+00 -1.73583e+01 -1.44524e+01
       H -7.65952e+00 -1.81261e+01 -1.51029e+01
       H -8.41200e+00 -1.77407e+01 -1.38076e+01
       O -1.08281e+01 -1.91261e+01 -2.51183e+01
       H -1.06568e+01 -1.83783e+01 -2.57044e+01
       H -1.04736e+01 -1.87948e+01 -2.42967e+01
       O -1.70592e+01 -2.25760e+01  1.47276e+00
       H -1.62640e+01 -2.25773e+01  9.04001e-01
       H -1.69262e+01 -2.34905e+01  1.84274e+00
       O -1.63532e+01 -3.71802e+01 -1.45221e+01
       H -1.55670e+01 -3.68853e+01 -1.40396e+01
       H -1.70390e+01 -3.71283e+01 -1.38192e+01
       O -8.97243e+00 -3.63617e+00  5.61714e+00
       H -8.53148e+00 -3.08103e+00  4.95991e+00
       H -9.84118e+00 -3.43381e+00  5.31065e+00
       O  1.20036e+01  1.40677e+00 -4.03116e+01
       H  1.20152e+01  1.27428e+00 -3.93063e+01
       H  1.18964e+01  4.32007e-01 -4.05140e+01
       O  6.58806e-01 -3.06865e+01 -2.00314e+01
       H  2.91731e-01 -3.05233e+01 -2.09016e+01
       H  5.76982e-01 -2.97651e+01 -1.96747e+01
       O -3.16537e+01 -1.37524e+01 -4.52078e+00
       H -3.23237e+01 -1.42819e+01 -5.06638e+00
       H -3.08859e+01 -1.43598e+01 -4.54452e+00
       O -1.79721e-01 -1.26700e+01 -1.82154e+01
       H -5.49487e-01 -1.17989e+01 -1.85800e+01
       H  7.59964e-01 -1.24663e+01 -1.81177e+01
       O -2.50570e+01 -5.33574e+01 -2.87745e+01
       H -2.51215e+01 -5.36746e+01 -2.96482e+01
       H -2.60076e+01 -5.34185e+01 -2.83956e+01
       O -1.79226e+01 -5.05314e+00 -3.64272e+01
       H -1.79106e+01 -4.90762e+00 -3.73603e+01
       H -1.78767e+01 -6.01165e+00 -3.63612e+01
       O -9.65260e+00 -2.43922e+00 -3.71550e+01
       H -9.73929e+00 -2.81982e+00 -3.62535e+01
       H -1.01790e+01 -1.64526e+00 -3.70053e+01
       O -5.01095e+01 -2.28171e+01 -5.63159e+00
       H -5.05894e+01 -2.36528e+01 -5.53745e+00
       H -5.02175e+01 -2.25917e+01 -4.67812e+00
       O -3.11768e+01 -1.78417e+01 -8.90001e+00
       H -3.14317e+01 -1.82294e+01 -8.05148e+00
       H -3.05114e+01 -1.72700e+01 -8.54123e+00
       O -2.49439e+01 -2.50673e+01 -1.99438e+01
       H -2.43669e+01 -2.51894e+01 -2.07349e+01
       H -2.58594e+01 -2.48756e+01 -2.02253e+01
       O  8.33930e+00 -7.14200e+00  6.78200e-01
       H  9.20000e+00 -6.92640e+00  1.58783e-01
       H  7.89150e+00 -6.27993e+00  6.72574e-01
       O  1.12696e-02  4.77919e+00  8.70070e+00
       H -1.14539e-01  5.78208e+00  8.75878e+00
       H  9.39429e-01  4.58497e+00  8.82925e+00
       O -1.08768e+00 -1.83090e+00 -6.44560e-01
       H -2.42422e-01 -1.41197e+00 -8.41697e-01
       H -1.23186e+00 -2.21033e+00 -1.56446e+00
       O -1.19761e+01 -5.29135e+00 -1.64954e+01
       H -1.12035e+01 -5.82405e+00 -1.67607e+01
       H -1.24027e+01 -5.15053e+00 -1.73476e+01
       O -5.37246e+00  1.34653e+01 -2.08710e+01
       H -4.45786e+00  1.37824e+01 -2.06446e+01
       H -5.62168e+00  1.31222e+01 -2.00051e+01
       O -1.34687e+01 -9.71506e+00 -4.42727e+00
       H -1.28742e+01 -9.50766e+00 -5.23621e+00
       H -1.27989e+01 -9.45129e+00 -3.73884e+00
       O -9.48434e+00 -3.68494e+01 -2.95972e+01
       H -8.81455e+00 -3.65862e+01 -2.90022e+01
       H -1.01492e+01 -3.73707e+01 -2.90318e+01
       O -1.71257e+01 -2.67846e+01 -9.67271e+00
       H -1.78756e+01 -2.66881e+01 -9.06817e+00
       H -1.64124e+01 -2.62683e+01 -9.22166e+00
       O -1.99377e+01 -4.09073e+01 -8.84823e+00
       H -1.95768e+01 -4.15808e+01 -8.27836e+00
       H -2.06849e+01 -4.13547e+01 -9.30469e+00
       O  3.87423e+00  1.21623e+00 -5.44030e+00
       H  4.79560e+00  1.49645e+00 -5.58300e+00
       H  3.49442e+00  1.89842e+00 -4.88610e+00
       O -2.68867e+00 -2.86701e+01 -3.08141e+01
       H -1.92635e+00 -2.84081e+01 -3.02780e+01
       H -3.39623e+00 -2.83218e+01 -3.02555e+01
       O  4.35845e+00 -8.76059e-01 -2.82632e+01
       H  4.55070e+00 -5.09099e-01 -2.90785e+01
       H  3.65780e+00 -1.52062e+00 -2.85182e+01
       O -3.98809e+01 -2.02425e+01 -1.05904e+01
       H -4.06901e+01 -1.98592e+01 -1.01534e+01
       H -4.00016e+01 -1.98999e+01 -1.15053e+01
       O -1.65392e+01 -4.73127e+01 -2.00303e+01
       H -1.57800e+01 -4.73479e+01 -2.05584e+01
       H -1.63090e+01 -4.65779e+01 -1.94159e+01
       O -8.99703e+00 -2.44889e+01 -4.25342e+00
       H -9.88701e+00 -2.44788e+01 -4.48948e+00
       H -9.12135e+00 -2.45984e+01 -3.22040e+00
       O  5.96782e+00 -2.40965e+01 -2.04473e+01
       H  5.47941e+00 -2.48919e+01 -2.00650e+01
       H  6.37771e+00 -2.45720e+01 -2.11423e+01
       O -2.07828e+01 -3.98110e+01 -1.84829e+01
       H -2.09681e+01 -3.93220e+01 -1.76549e+01
       H -1.98493e+01 -3.97432e+01 -1.85107e+01
       O -3.62347e+01 -1.69032e+01 -1.94199e+01
       H -3.67611e+01 -1.60788e+01 -1.90906e+01
       H -3.67020e+01 -1.71767e+01 -2.01823e+01
       O -2.15176e+01 -1.73709e+01 -2.99099e+01
       H -2.13372e+01 -1.69550e+01 -2.90809e+01
       H -2.06649e+01 -1.79080e+01 -2.99980e+01
       O -2.13497e+01  5.70718e+00 -2.00912e+01
       H -2.18149e+01  6.05823e+00 -2.08645e+01
       H -2.11248e+01  6.53468e+00 -1.96426e+01
       O -2.29379e+01 -9.12834e+00 -1.09360e+01
       H -2.31982e+01 -9.73774e+00 -1.17126e+01
       H -2.35249e+01 -8.38986e+00 -1.11694e+01
       O -1.75676e+01 -2.46709e+01  1.12155e+01
       H -1.67280e+01 -2.49564e+01  1.17266e+01
       H -1.81954e+01 -2.45766e+01  1.19000e+01
       O  1.83903e+00 -8.48183e+00  7.61941e-01
       H  1.77611e+00 -7.66957e+00  2.47384e-01
       H  2.66162e+00 -8.83630e+00  3.75958e-01
       O -1.46936e+01 -2.37045e+01 -3.22668e+01
       H -1.38373e+01 -2.38674e+01 -3.19497e+01
       H -1.51437e+01 -2.43393e+01 -3.16605e+01
       O -1.08728e+01 -2.47955e+01 -3.45010e+01
       H -1.03073e+01 -2.44040e+01 -3.38197e+01
       H -1.12635e+01 -2.54870e+01 -3.39488e+01
       O -2.91126e+01 -3.58787e+01  1.12991e+01
       H -2.81619e+01 -3.61008e+01  1.12727e+01
       H -2.91952e+01 -3.50195e+01  1.08408e+01
       O -2.52880e+01 -2.54812e+01 -3.23130e+01
       H -2.53992e+01 -2.53569e+01 -3.13621e+01
       H -2.55087e+01 -2.45959e+01 -3.25582e+01
       O -5.21990e+00 -1.68551e+01  1.98993e+01
       H -4.40827e+00 -1.63646e+01  1.98682e+01
       H -5.07956e+00 -1.74051e+01  1.90880e+01
       O -3.88479e+01 -1.00634e+01  7.61590e-01
       H -3.96878e+01 -9.71861e+00  3.34136e-01
       H -3.87542e+01 -9.58965e+00  1.61381e+00
       O -1.40337e+01 -2.62291e+01 -3.59557e+00
       H -1.37291e+01 -2.58741e+01 -4.42106e+00
       H -1.49326e+01 -2.58361e+01 -3.60883e+00
       O -1.94421e+01 -2.42939e+01 -2.24552e+01
       H -1.87393e+01 -2.36892e+01 -2.19919e+01
       H -1.92803e+01 -2.41077e+01 -2.34074e+01
       O -5.01952e+00 -1.43474e+01 -1.72758e+01
       H -5.88375e+00 -1.39940e+01 -1.75584e+01
       H -4.56678e+00 -1.45116e+01 -1.81423e+01
       O -1.41077e+01 -1.92186e+01 -1.28650e+01
       H -1.50844e+01 -1.92480e+01 -1.27225e+01
       H -1.41370e+01 -1.88535e+01 -1.37624e+01
       O -3.31352e+01  1.67568e+01 -1.57914e+01
       H -3.26199e+01  1.62732e+01 -1.51149e+01
       H -3.24950e+01  1.67202e+01 -1.65250e+01
       O -1.45891e+00 -2.11454e+01 -2.18324e+01
       H -1.47863e+00 -2.02037e+01 -2.15779e+01
       H -6.28014e-01 -2.13386e+01 -2.23693e+01
       O -1.07836e+01 -2.24376e+01 -4.21702e+01
       H -9.82706e+00 -2.23256e+01 -4.18810e+01
       H -1.07154e+01 -2.24812e+01 -4.31219e+01
       O -1.49833e+01 -2.04420e+01 -2.03198e+01
       H -1.45895e+01 -1.99592e+01 -2.10907e+01
       H -1.59116e+01 -2.02804e+01 -2.06087e+01
       O -8.35939e+00  4.95597e+00 -1.81509e+01
       H -7.71844e+00  5.64591e+00 -1.83360e+01
       H -8.63667e+00  4.54996e+00 -1.90238e+01
       O -1.30108e+01 -2.68282e+01 -3.78470e+01
       H -1.26283e+01 -2.66235e+01 -3.87246e+01
       H -1.24585e+01 -2.75988e+01 -3.77055e+01
       O -4.71434e+01 -3.27501e+01 -1.27346e+01
       H -4.80755e+01 -3.25711e+01 -1.29295e+01
       H -4.72049e+01 -3.36771e+01 -1.23522e+01
       O -2.06648e+01 -2.00988e+01  1.26574e+01
       H -2.11424e+01 -2.02734e+01  1.18235e+01
       H -1.96839e+01 -2.01740e+01  1.24471e+01
       O -1.00720e-01  3.63922e+00  2.79345e+00
       H -5.84066e-01  2.82273e+00  2.97100e+00
       H -7.28198e-01  4.28810e+00  3.20378e+00
       O -2.23524e+01 -3.22986e+01 -1.23769e+01
       H -2.28351e+01 -3.20644e+01 -1.15629e+01
       H -2.14700e+01 -3.18750e+01 -1.22749e+01
       O  3.16037e+00 -1.32993e+01  1.29641e+01
       H  2.23531e+00 -1.33445e+01  1.31992e+01
       H  3.38678e+00 -1.23877e+01  1.31962e+01
       O -8.54681e+00 -7.67021e+00 -1.06493e+01
       H -8.70606e+00 -8.02970e+00 -1.15260e+01
       H -7.95610e+00 -8.26880e+00 -1.02810e+01
       O  1.46813e+01  1.27579e+01  6.08087e-01
       H  1.40705e+01  1.19551e+01  5.62151e-01
       H  1.42433e+01  1.34869e+01  1.12982e+00
       O -1.00694e+01 -7.49280e-01 -3.37995e+01
       H -1.02046e+01  2.01515e-01 -3.40637e+01
       H -9.10205e+00 -9.01094e-01 -3.40154e+01
       O -4.40262e+00 -1.37206e+01 -3.34118e+01
       H -3.87033e+00 -1.31889e+01 -3.39925e+01
       H -5.23887e+00 -1.32126e+01 -3.34437e+01
       O -2.41927e+01 -1.14181e+01 -2.34075e+01
       H -2.37274e+01 -1.05724e+01 -2.30948e+01
       H -2.38275e+01 -1.20039e+01 -2.27075e+01
       O -1.58391e+01 -2.91950e+01 -3.82626e+01
       H -1.57215e+01 -2.97519e+01 -3.89357e+01
       H -1.49844e+01 -2.92540e+01 -3.78785e+01
       O -9.22102e+00 -3.20725e-01  4.94578e+00
       H -9.63170e+00 -2.51187e-01  4.03233e+00
       H -8.41503e+00 -8.02583e-01  4.78068e+00
       O -1.81808e+01 -2.52130e+01 -1.20662e+01
       H -1.79361e+01 -2.59514e+01 -1.26382e+01
       H -1.78591e+01 -2.54557e+01 -1.11678e+01
       O  5.59539e+00 -6.80026e+00 -1.56651e+01
       H  6.30635e+00 -7.18957e+00 -1.62116e+01
       H  4.84222e+00 -7.32669e+00 -1.59492e+01
       O -5.29292e+00 -9.53350e+00 -4.35393e+00
       H -5.94880e+00 -9.34836e+00 -3.67284e+00
       H -5.67108e+00 -1.03407e+01 -4.70233e+00
       O  2.04369e+01  1.53127e+01 -2.23345e+01
       H  2.04071e+01  1.43710e+01 -2.20623e+01
       H  2.09974e+01  1.57354e+01 -2.16501e+01
       O -1.62840e+01 -2.19567e+01 -3.35809e+00
       H -1.68558e+01 -2.11111e+01 -3.23234e+00
       H -1.54060e+01 -2.16007e+01 -3.54516e+00
       O -2.15305e+01 -3.90538e+01 -7.62350e+00
       H -2.23513e+01 -3.88964e+01 -8.11640e+00
       H -2.10124e+01 -3.96270e+01 -8.23175e+00
       O -9.64440e+00 -3.04929e+01 -1.50796e+01
       H -9.97705e+00 -3.12326e+01 -1.45219e+01
       H -1.05039e+01 -3.01742e+01 -1.54383e+01
       O -5.40904e+00 -2.57860e+01 -1.53338e+01
       H -4.96763e+00 -2.56639e+01 -1.61497e+01
       H -4.67814e+00 -2.55835e+01 -1.46856e+01
       O -2.55618e+01 -2.63233e+00 -2.25335e+01
       H -2.46947e+01 -2.46259e+00 -2.29815e+01
       H -2.54757e+01 -3.53019e+00 -2.21211e+01
       O -2.28949e+01 -3.01021e+01 -2.32099e+01
       H -2.30664e+01 -3.10406e+01 -2.30856e+01
       H -2.36315e+01 -2.99160e+01 -2.38564e+01
       O -1.43586e+01 -6.65663e+00 -5.34270e+00
       H -1.39179e+01 -7.47088e+00 -5.31960e+00
       H -1.35807e+01 -6.18062e+00 -5.65074e+00
       O -1.68254e+01 -5.19319e+01 -4.98883e+01
       H -1.61544e+01 -5.13727e+01 -5.02669e+01
       H -1.64772e+01 -5.28203e+01 -5.00029e+01
       O -1.21497e+01 -2.35460e+01 -1.11990e+01
       H -1.26219e+01 -2.34221e+01 -1.20893e+01
       H -1.25434e+01 -2.43969e+01 -1.08313e+01
       O -1.71066e+01 -3.33393e+01 -1.77351e+01
       H -1.79882e+01 -3.29668e+01 -1.76621e+01
       H -1.73285e+01 -3.42826e+01 -1.78731e+01
       O -1.31609e+01 -8.25642e+00 -1.54885e+01
       H -1.40933e+01 -8.37123e+00 -1.51543e+01
       H -1.29874e+01 -7.25216e+00 -1.54030e+01
       O -2.01394e+01 -1.63071e+01 -1.73271e+01
       H -2.03218e+01 -1.68893e+01 -1.66159e+01
       H -2.00490e+01 -1.70334e+01 -1.80298e+01
       O -8.71944e+00 -1.45102e+01  1.77655e+00
       H -9.00873e+00 -1.35993e+01  1.53850e+00
       H -8.03577e+00 -1.47235e+01  1.09056e+00
       O -5.02406e+00 -2.32157e+01 -4.61791e+01
       H -4.49731e+00 -2.32769e+01 -4.53305e+01
       H -4.61722e+00 -2.38156e+01 -4.67804e+01
       O -4.64068e+00 -2.29294e+01 -1.37359e+01
       H -3.92386e+00 -2.22827e+01 -1.34063e+01
       H -4.26145e+00 -2.31010e+01 -1.46135e+01
       O -2.03031e+01 -1.83774e+01 -9.62017e+00
       H -1.95654e+01 -1.88544e+01 -9.21472e+00
       H -2.07769e+01 -1.80901e+01 -8.84352e+00
       O -2.70063e+01 -1.29435e+01 -2.64908e+01
       H -2.70522e+01 -1.33420e+01 -2.73449e+01
       H -2.78236e+01 -1.33418e+01 -2.61209e+01
       O  3.08556e+00 -4.90856e+00 -2.60060e+01
       H  3.93159e+00 -4.71360e+00 -2.56007e+01
       H  2.98121e+00 -5.82565e+00 -2.56890e+01
       O -2.69286e-01 -4.59536e+00  1.44990e+01
       H  5.86578e-02 -4.58967e+00  1.53606e+01
       H -3.48179e-02 -5.46928e+00  1.41287e+01
       O -2.18560e+01 -2.52979e+01  1.21645e+01
       H -2.11464e+01 -2.58418e+01  1.16535e+01
       H -2.22601e+01 -2.47752e+01  1.14079e+01
       O -2.48265e+01 -8.47394e+00 -4.57712e+00
       H -2.50913e+01 -7.78338e+00 -5.27463e+00
       H -2.39927e+01 -8.81255e+00 -5.07080e+00
       O -4.22082e+01 -1.38619e+01 -9.30919e+00
       H -4.17178e+01 -1.33063e+01 -9.93590e+00
       H -4.28840e+01 -1.41632e+01 -9.97360e+00
       O  2.74932e+00 -3.73339e+00  5.47503e+00
       H  3.69974e+00 -3.53736e+00  5.48014e+00
       H  2.39176e+00 -2.89266e+00  5.82031e+00
       O -3.04202e+01 -4.41310e+00 -5.60342e+01
       H -2.96653e+01 -3.73479e+00 -5.59585e+01
       H -3.00600e+01 -5.08920e+00 -5.66698e+01
       O -1.07920e+01 -2.27100e+01 -1.62531e+01
       H -1.02670e+01 -2.33472e+01 -1.67373e+01
       H -1.14107e+01 -2.32215e+01 -1.57597e+01
       O -3.98005e+00 -1.22009e+01 -2.98063e+01
       H -4.84955e+00 -1.18272e+01 -2.95092e+01
       H -4.16774e+00 -1.31171e+01 -3.01245e+01
       O -5.97403e+01 -1.76499e+01 -3.01723e-01
       H -6.04157e+01 -1.78219e+01 -9.80542e-01
       H -5.92304e+01 -1.85354e+01 -4.55130e-01
       O -1.74831e+00 -8.91721e+00  6.04244e+00
       H -1.68207e+00 -9.42111e+00  6.85079e+00
       H -1.52409e+00 -9.59189e+00  5.27361e+00
       O -1.18572e+01 -1.07181e+01  2.78191e+01
       H -1.27820e+01 -1.06077e+01  2.74503e+01
       H -1.13548e+01 -1.05683e+01  2.70061e+01
       O -1.01065e+01 -3.91286e+01 -4.19886e+01
       H -9.23457e+00 -3.90222e+01 -4.15280e+01
       H -1.00330e+01 -3.84719e+01 -4.26989e+01
       O -1.46202e+01 -1.43628e+01 -9.59257e+00
       H -1.55213e+01 -1.46456e+01 -9.62445e+00
       H -1.43475e+01 -1.45503e+01 -8.66397e+00
       O -1.39851e+01 -1.00024e+01  1.07063e+01
       H -1.48721e+01 -9.78537e+00  1.03853e+01
       H -1.41556e+01 -1.07992e+01  1.11110e+01
       O -1.18224e+01 -6.35411e+00 -6.78855e+00
       H -1.09680e+01 -6.66979e+00 -7.15729e+00
       H -1.23021e+01 -6.49531e+00 -7.64376e+00
       O -3.51884e+01 -5.29256e+00 -1.73707e+00
       H -3.57466e+01 -4.63307e+00 -2.20322e+00
       H -3.44726e+01 -5.47743e+00 -2.31222e+00
       O -1.47812e+01 -1.98302e+01 -3.60403e+01
       H -1.53006e+01 -1.94124e+01 -3.67799e+01
       H -1.47771e+01 -2.07374e+01 -3.63565e+01
       O -1.09306e+01 -5.66253e+00  2.64293e+00
       H -9.96894e+00 -5.89852e+00  2.56915e+00
       H -1.12052e+01 -5.98744e+00  3.48174e+00
       O -9.34599e+00 -3.25702e+01 -2.23168e+00
       H -1.02379e+01 -3.21451e+01 -2.18368e+00
       H -9.01639e+00 -3.26783e+01 -1.35257e+00
       O -2.25836e+00 -5.31924e+01 -9.76267e+00
       H -1.29153e+00 -5.33110e+01 -9.98177e+00
       H -2.49143e+00 -5.41192e+01 -9.52818e+00
       O -6.20470e+00 -4.17452e+00  3.02419e+00
       H -5.56454e+00 -4.08714e+00  3.74853e+00
       H -5.64238e+00 -4.41230e+00  2.27369e+00
       O -2.69244e+01 -2.33576e+01 -5.24237e+00
       H -2.71891e+01 -2.26489e+01 -4.68087e+00
       H -2.72165e+01 -2.30723e+01 -6.14708e+00
       O  2.90964e+00  1.30370e+01 -3.88235e-01
       H  1.99215e+00  1.28086e+01 -2.77742e-01
       H  3.23444e+00  1.21783e+01 -1.49891e-01
       O -3.97033e+00 -3.11732e+01 -1.22576e+01
       H -3.34096e+00 -3.09649e+01 -1.14990e+01
       H -4.71651e+00 -3.05931e+01 -1.20107e+01
       O -2.05898e+01 -2.75110e+01 -9.80493e+00
       H -2.09166e+01 -2.67062e+01 -1.02085e+01
       H -2.04119e+01 -2.72405e+01 -8.89993e+00
       O -2.14744e+01 -2.84238e+01 -1.36286e+01
       H -2.20766e+01 -2.88728e+01 -1.41774e+01
       H -2.19840e+01 -2.76508e+01 -1.34177e+01
       O -4.16767e-01 -9.75895e+00 -2.29661e-01
       H -8.82027e-03 -1.06937e+01  1.00987e-01
       H  2.19143e-01 -9.14015e+00  1.71628e-01
       O -9.55536e+00 -1.47088e+01 -1.54664e+01
       H -1.02429e+01 -1.46994e+01 -1.47968e+01
       H -8.77876e+00 -1.50434e+01 -1.49537e+01
       O -1.51673e+01 -2.51998e+01 -1.41844e+01
       H -1.49982e+01 -2.57496e+01 -1.33544e+01
       H -1.59975e+01 -2.55164e+01 -1.45367e+01
       O  3.91851e+00 -1.03066e+01 -1.14239e+01
       H  3.33124e+00 -9.77100e+00 -1.19876e+01
       H  3.40617e+00 -1.05430e+01 -1.06567e+01
       O -8.02089e+00 -2.87412e+01 -1.65504e+01
       H -8.54442e+00 -2.93117e+01 -1.60782e+01
       H -7.13836e+00 -2.91525e+01 -1.65354e+01
       O -2.19268e+01 -1.58529e+01 -2.02906e+01
       H -2.19306e+01 -1.67099e+01 -1.98337e+01
       H -2.10300e+01 -1.58033e+01 -2.05976e+01
       O -2.82900e+01  7.89942e-01 -7.29103e+00
       H -2.73440e+01  1.15756e+00 -7.32843e+00
       H -2.88882e+01  1.57863e+00 -7.12806e+00
       O -1.10721e+01 -3.15264e+00  3.44026e+00
       H -1.11349e+01 -4.11559e+00  3.14398e+00
       H -1.02269e+01 -2.91814e+00  2.96371e+00
       O -2.58918e+01 -6.55053e+00 -1.10863e+01
       H -2.51143e+01 -6.68235e+00 -1.16858e+01
       H -2.53896e+01 -6.34278e+00 -1.03413e+01
       O -3.19094e+00  4.43151e+00 -2.27565e+01
       H -3.32368e+00  3.51757e+00 -2.29977e+01
       H -3.95270e+00  4.60755e+00 -2.21366e+01
       O -2.15076e+01 -4.70220e+00 -4.04997e+00
       H -2.14796e+01 -4.92012e+00 -5.05152e+00
       H -2.05594e+01 -4.90988e+00 -3.79421e+00
       O -1.80039e+01 -2.06384e+01 -5.46047e+00
       H -1.81988e+01 -2.03753e+01 -4.59386e+00
       H -1.70319e+01 -2.04842e+01 -5.53031e+00
       O  5.63637e+00  8.71665e+00  9.15703e+00
       H  6.06375e+00  9.07109e+00  9.94427e+00
       H  5.83495e+00  9.38775e+00  8.51669e+00
       O -1.85067e+01 -1.26001e+01 -9.88111e-01
       H -1.94472e+01 -1.28657e+01 -1.17484e+00
       H -1.87076e+01 -1.19984e+01 -2.60596e-01
       O -6.12848e-01 -2.17827e+01 -3.49580e+01
       H -8.92908e-02 -2.24231e+01 -3.44271e+01
       H -5.00328e-02 -2.10379e+01 -3.47245e+01
       O -5.33653e-01 -4.93349e+00 -5.52831e+00
       H -1.47630e-01 -4.56051e+00 -6.38462e+00
       H -1.47546e+00 -4.62289e+00 -5.55942e+00
       O -3.64554e-01 -2.06727e+01  1.75121e+00
       H -2.25165e-01 -2.15294e+01  1.35751e+00
       H -8.82229e-01 -2.08815e+01  2.57371e+00
       O -2.63026e+01 -1.51674e+01 -1.30770e+01
       H -2.57576e+01 -1.53813e+01 -1.22753e+01
       H -2.58336e+01 -1.43513e+01 -1.33334e+01
       O -1.24302e+01 -1.07387e+01 -2.40639e+01
       H -1.27915e+01 -1.15218e+01 -2.45429e+01
       H -1.33060e+01 -1.03546e+01 -2.38806e+01
       O -1.87468e+01 -1.99589e+01 -8.00660e+00
       H -1.78738e+01 -2.01734e+01 -8.37971e+00
       H -1.85959e+01 -2.02833e+01 -7.04508e+00
       O -9.27640e+00 -1.75506e+01 -1.97309e+01
       H -8.40307e+00 -1.79251e+01 -1.93978e+01
       H -9.15421e+00 -1.78695e+01 -2.06360e+01
       O -1.95284e+01  9.95873e+00 -2.66288e+01
       H -1.85501e+01  9.66070e+00 -2.67701e+01
       H -2.00435e+01  9.10809e+00 -2.65284e+01
       O  1.02753e+01 -2.05201e+01 -2.39869e+01
       H  9.54258e+00 -2.06786e+01 -2.46158e+01
       H  9.87679e+00 -2.06312e+01 -2.31341e+01
       O -1.45126e+01 -3.20454e+01 -1.67455e+01
       H -1.49609e+01 -3.13837e+01 -1.72663e+01
       H -1.51466e+01 -3.28099e+01 -1.68730e+01
       O -2.13049e+01 -5.28272e+00  8.57098e+00
       H -2.17733e+01 -6.00125e+00  8.10168e+00
       H -2.04077e+01 -5.69249e+00  8.66421e+00
       O -3.46212e+01 -3.51696e+01 -1.97241e+01
       H -3.40154e+01 -3.48947e+01 -1.89994e+01
       H -3.49190e+01 -3.59607e+01 -1.93033e+01
       O -7.26961e+00 -1.92703e+01 -1.62100e+01
       H -7.84108e+00 -1.99806e+01 -1.65510e+01
       H -7.32839e+00 -1.86370e+01 -1.69093e+01
       O -4.22780e+01 -3.05638e+01 -2.37369e+01
       H -4.30533e+01 -3.07544e+01 -2.30798e+01
       H -4.27242e+01 -3.05271e+01 -2.45596e+01
       O -4.96046e+01 -2.04129e+01 -1.05194e+01
       H -5.03764e+01 -2.07081e+01 -1.00328e+01
       H -4.99954e+01 -2.04866e+01 -1.14180e+01
       O  1.97659e+00 -1.55894e+00 -2.35811e+00
       H  2.31687e+00 -6.92397e-01 -2.09130e+00
       H  2.79281e+00 -1.86618e+00 -2.85433e+00
       O -8.78598e+00 -2.64719e+01 -4.94087e+01
       H -8.65522e+00 -2.72186e+01 -4.88785e+01
       H -9.65544e+00 -2.66267e+01 -4.97668e+01
       O -5.78511e+00 -2.42628e+01 -2.42634e+01
       H -6.20519e+00 -2.36957e+01 -2.49109e+01
       H -6.00076e+00 -2.38216e+01 -2.34614e+01
       O -6.71819e+00 -1.55812e+01 -1.79188e-01
       H -6.10244e+00 -1.61474e+01  2.15812e-01
       H -7.12158e+00 -1.62067e+01 -7.56933e-01
       O -5.34895e+01 -1.93935e+01 -6.43106e+00
       H -5.39923e+01 -1.93283e+01 -7.26729e+00
       H -5.38614e+01 -1.86804e+01 -5.92419e+00
       O -1.71557e+01 -2.01267e+01 -1.90010e-01
       H -1.71344e+01 -1.97001e+01 -1.05181e+00
       H -1.81070e+01 -2.04040e+01 -1.27445e-01
       O -2.29986e+01  2.16206e+01 -1.37873e+01
       H -2.37120e+01  2.18442e+01 -1.44124e+01
       H -2.30070e+01  2.23245e+01 -1.30515e+01
       O  9.57143e+00  3.63709e+00 -7.70396e-02
       H  9.32654e+00  4.50211e+00  3.29083e-01
       H  8.95564e+00  3.74512e+00 -8.12979e-01
       O -1.44822e+01  1.36839e+00  2.31001e+00
       H -1.54121e+01  1.62606e+00  2.51629e+00
       H -1.45541e+01  7.05344e-01  1.58105e+00
       O -2.78040e+01 -1.45114e+01 -1.02768e+01
       H -2.69032e+01 -1.48850e+01 -1.02008e+01
       H -2.76347e+01 -1.40577e+01 -1.11167e+01
       O -4.94458e+01 -2.51827e+01  1.16021e+01
       H -4.98267e+01 -2.50327e+01  1.07063e+01
       H -4.86000e+01 -2.46712e+01  1.14375e+01
       O -1.16638e+01  1.05485e+01 -1.73317e+01
       H -1.17829e+01  1.02216e+01 -1.82297e+01
       H -1.08668e+01  1.11211e+01 -1.73356e+01
       O -1.33778e+01 -2.46363e+01 -3.61330e+01
       H -1.26059e+01 -2.45492e+01 -3.55223e+01
       H -1.31225e+01 -2.53579e+01 -3.67333e+01
       O -8.54341e+00 -2.39542e+01  2.07876e+00
       H -8.01567e+00 -2.34619e+01  2.70534e+00
       H -8.48243e+00 -2.33785e+01  1.27312e+00
       O -1.70671e+01 -2.05241e-01 -2.71592e+01
       H -1.76552e+01  2.80781e-01 -2.76947e+01
       H -1.71338e+01 -1.11823e+00 -2.75964e+01
       O -1.46923e+01 -4.93678e+00 -1.35432e+01
       H -1.44153e+01 -4.46883e+00 -1.43989e+01
       H -1.38044e+01 -5.10847e+00 -1.30750e+01
       O -3.72066e+00 -9.81136e+00  3.67501e+00
       H -3.40171e+00 -1.05530e+01  3.18249e+00
       H -4.42649e+00 -1.02430e+01  4.25537e+00
       O -3.34891e+01  1.03145e+00 -2.59206e+01
       H -3.26205e+01  6.51184e-01 -2.60462e+01
       H -3.31631e+01  1.87783e+00 -2.54775e+01
       O -3.67472e+01 -1.77108e+01 -7.57176e+00
       H -3.62936e+01 -1.85762e+01 -7.68437e+00
       H -3.71532e+01 -1.75396e+01 -8.44816e+00
       O -2.60926e+01 -2.89451e+01 -9.93068e+00
       H -2.63576e+01 -2.98013e+01 -1.02354e+01
       H -2.68842e+01 -2.83824e+01 -9.85709e+00
       O -1.31633e+01 -1.76913e+01 -4.13580e+01
       H -1.34034e+01 -1.69661e+01 -4.18814e+01
       H -1.22898e+01 -1.73407e+01 -4.11036e+01
       O -2.10547e+01 -5.51165e+00 -6.68451e+00
       H -2.07302e+01 -6.38811e+00 -7.04035e+00
       H -2.10240e+01 -4.93375e+00 -7.44162e+00
       O -2.70539e+01 -2.71291e+01 -3.34917e+01
       H -2.64504e+01 -2.63364e+01 -3.32163e+01