14
# CELL(abcABC): 1000.00000  1000.00000  1000.00000    90.00000    90.00000    90.00000  Step:         120  Bead:       0 positions{angstrom}  cell{angstrom}
       C -6.79376e-01  6.89898e-01 -3.46402e-02
       C  3.06117e-01 -3.47936e-01  7.22215e-01
       C -1.94430e+00 -8.86456e-03 -5.15374e-01
       C -7.60619e-01  1.94494e+00  7.67884e-01
       H -1.25571e+00  1.83051e+00  1.76541e+00
       H -1.22846e+00  2.67260e+00  1.09295e-01
       H  2.50453e-01  2.25038e+00  9.88554e-01
       H -1.65008e+00 -8.32917e-01 -1.20579e+00
       H -2.55169e+00  7.50046e-01 -1.01954e+00
       H -2.42495e+00 -3.99579e-01  3.92538e-01
       H  1.19728e+00  6.57739e-02  7.84177e-01
       H  1.72835e-01 -1.31485e+00  3.29795e-01
       H -1.39393e-02 -4.77595e-01  1.89083e+00
       H  1.60513e-02  7.88427e-01 -9.40841e-01
