6
# CELL(abcABC): 1000.00000  1000.00000  1000.00000    90.00000    90.00000    90.00000  Step:         465  Bead:       0 positions{angstrom}  cell{angstrom}
       C -7.22036e-01  2.64236e+00 -4.89922e-01
       H -9.63572e-01  3.12724e+00 -1.46487e+00
       H  3.19080e-01  2.86054e+00 -2.70197e-01
       H -9.09487e-01  1.59366e+00 -5.36608e-01
       O -1.50912e+00  3.32397e+00  4.54435e-01
       H -2.39736e+00  3.01043e+00  5.82514e-01
