11115
# CELL(abcABC):   47.66706    47.66706    47.66706    90.00000    90.00000    90.00000  Step:       10000  Bead:       0 positions{angstrom}  cell{angstrom}
       C  8.05248e+00  6.84463e+00  5.04019e+00
       H  7.31058e+00  7.64789e+00  4.99712e+00
       H  9.03848e+00  7.26597e+00  5.26940e+00
       H  7.83135e+00  6.20287e+00  5.92077e+00
       C  8.13483e+00  5.95934e+00  3.86196e+00
       O  7.48855e+00  6.25836e+00  2.83440e+00
       N  8.88247e+00  4.84634e+00  3.95259e+00
       H  9.39706e+00  4.60955e+00  4.78907e+00
       C  9.08606e+00  3.93463e+00  2.81506e+00
       H  8.35487e+00  4.23479e+00  2.11092e+00
       C  1.04279e+01  4.30427e+00  2.23908e+00
       H  1.12457e+01  3.98253e+00  2.80750e+00
       H  1.04830e+01  5.40250e+00  2.27295e+00
       C  1.07488e+01  4.01115e+00  8.24754e-01
       O  1.19077e+01  4.37336e+00  4.49019e-01
       O  9.95115e+00  3.46513e+00  5.36231e-02
       H  1.01614e+01  3.25861e+00 -9.75887e-01
       C  9.04141e+00  2.39998e+00  3.10236e+00
       O  9.59362e+00  1.65127e+00  2.29924e+00
       N  8.39185e+00  1.96865e+00  4.17394e+00
       H  8.26086e+00  1.01248e+00  4.34766e+00
       H  7.79203e+00  2.59874e+00  4.58566e+00
       O -1.90567e+01 -6.89346e+00 -9.27595e+00
       H -1.99373e+01 -6.37609e+00 -9.37037e+00
       H -1.85468e+01 -6.44166e+00 -9.99915e+00
       O -3.98533e+01 -2.37339e+01 -2.80063e+01
       H -3.93549e+01 -2.29844e+01 -2.77606e+01
       H -3.91813e+01 -2.43202e+01 -2.83869e+01
       O -6.44103e+00 -1.01906e+01  2.07651e+00
       H -6.77512e+00 -1.02611e+01  2.96280e+00
       H -6.44423e+00 -1.11493e+01  1.99200e+00
       O -2.24520e+01 -3.91611e+01 -8.71220e+00
       H -2.16151e+01 -3.96036e+01 -8.89502e+00
       H -2.23501e+01 -3.82684e+01 -9.02431e+00
       O -3.02517e+01 -2.26851e+01  3.19623e+00
       H -3.09856e+01 -2.29375e+01  2.64482e+00
       H -3.04478e+01 -2.17277e+01  3.43139e+00
       O -2.50532e+01 -2.93785e+01 -1.58180e+01
       H -2.50651e+01 -2.90717e+01 -1.49004e+01
       H -2.44971e+01 -2.86600e+01 -1.62712e+01
       O -3.10466e+01 -3.31731e+01 -1.45408e+01
       H -3.07710e+01 -3.32201e+01 -1.54354e+01
       H -3.02831e+01 -3.35887e+01 -1.40822e+01
       O -2.15101e+01 -1.03584e+01 -1.90747e+01
       H -2.06032e+01 -1.01415e+01 -1.94749e+01
       H -2.19531e+01 -1.08351e+01 -1.98632e+01
       O -1.27723e+01 -2.96778e+01 -2.64137e+01
       H -1.26066e+01 -2.87382e+01 -2.66551e+01
       H -1.30913e+01 -3.00109e+01 -2.72697e+01
       O -2.76996e+00 -3.65628e+01 -1.58460e-01
       H -2.96421e+00 -3.70470e+01 -9.92398e-01
       H -1.95260e+00 -3.61688e+01 -4.38037e-01
       O -1.83711e+01 -4.28640e+00 -1.78577e+01
       H -1.92305e+01 -4.63744e+00 -1.78192e+01
       H -1.85236e+01 -3.55791e+00 -1.84678e+01
       O -1.30327e+00  1.20755e+01 -4.45396e+00
       H -8.14200e-01  1.15073e+01 -3.78748e+00
       H -1.76901e+00  1.26749e+01 -3.91569e+00
       O -1.33419e+01 -3.29011e+01 -2.62454e+01
       H -1.41334e+01 -3.33733e+01 -2.59197e+01
       H -1.36311e+01 -3.20063e+01 -2.59354e+01
       O -1.89178e+01 -1.62152e+01 -8.85286e+00
       H -1.81766e+01 -1.56233e+01 -8.80228e+00
       H -1.85718e+01 -1.69274e+01 -8.26569e+00
       O -3.68369e+01 -3.05993e+01 -4.51946e+01
       H -3.65412e+01 -3.14686e+01 -4.55624e+01
       H -3.66626e+01 -3.08276e+01 -4.42990e+01
       O -2.06374e+01 -1.62079e+01 -1.67350e+01
       H -2.07356e+01 -1.60960e+01 -1.76628e+01
       H -2.04241e+01 -1.53470e+01 -1.65421e+01
       O -3.37801e+01 -3.32744e+01  1.52713e+01
       H -3.31662e+01 -3.33262e+01  1.45096e+01
       H -3.45712e+01 -3.35885e+01  1.48148e+01
       O -1.35202e+01  3.15208e+00 -3.05520e+01
       H -1.30424e+01  3.99164e+00 -3.03050e+01
       H -1.43215e+01  3.55677e+00 -3.09648e+01
       O -2.55240e+01 -2.12615e+01  1.52915e+01
       H -2.60456e+01 -2.09604e+01  1.45062e+01
       H -2.62523e+01 -2.14214e+01  1.59745e+01
       O -3.15526e+01  1.31766e+01 -4.06862e+01
       H -3.06858e+01  1.30700e+01 -4.02462e+01
       H -3.19922e+01  1.24297e+01 -4.02247e+01
       O  5.27325e-02 -2.87430e+01 -1.85536e+01
       H  2.11109e-02 -2.95871e+01 -1.91046e+01
       H  4.70380e-01 -2.81107e+01 -1.92152e+01
       O -3.99391e+01 -3.68546e+00 -2.98761e+01
       H -4.08958e+01 -3.95209e+00 -2.98892e+01
       H -3.95317e+01 -4.51882e+00 -2.95702e+01
       O  3.69214e+00 -5.52091e+00 -8.62503e+00
       H  4.06555e+00 -5.53920e+00 -9.49470e+00
       H  3.78742e+00 -4.54082e+00 -8.54996e+00
       O -2.74125e+01 -1.69720e+01 -1.54710e+01
       H -2.80647e+01 -1.70144e+01 -1.62056e+01
       H -2.79337e+01 -1.67759e+01 -1.46824e+01
       O -8.06389e+00 -3.75492e+01 -3.41233e+01
       H -8.44927e+00 -3.81867e+01 -3.35096e+01
       H -8.17730e+00 -3.67650e+01 -3.35524e+01
       O -8.84245e+00 -5.40081e+00 -2.96841e+01
       H -8.22602e+00 -5.78390e+00 -3.03536e+01
       H -8.45673e+00 -4.49618e+00 -2.94603e+01
       O -1.20915e+01  2.06783e+01 -1.22590e+01
       H -1.13167e+01  2.00554e+01 -1.22881e+01
       H -1.17145e+01  2.13603e+01 -1.28918e+01
       O -1.60585e+01 -4.90364e+00  8.33201e+00
       H -1.67448e+01 -4.35164e+00  8.82212e+00
       H -1.56292e+01 -5.54056e+00  8.98008e+00
       O -1.28221e+01 -1.22775e+01 -1.16853e+01
       H -1.23863e+01 -1.14218e+01 -1.16496e+01
       H -1.22395e+01 -1.27061e+01 -1.09883e+01
       O -1.26410e+01 -1.52792e+01 -6.08677e+00
       H -1.24479e+01 -1.45174e+01 -6.60497e+00
       H -1.34755e+01 -1.49168e+01 -5.72565e+00
       O  1.20008e+01  7.64868e+00 -4.42121e+01
       H  1.13888e+01  8.39531e+00 -4.42174e+01
       H  1.21137e+01  7.48348e+00 -4.52091e+01
       O  1.28850e+01 -2.11512e+01 -2.11801e+01
       H  1.27205e+01 -2.08037e+01 -2.20565e+01
       H  1.20462e+01 -2.15284e+01 -2.10117e+01
       O  1.51951e+00 -5.03341e+00 -2.53416e+00
       H  6.99802e-01 -5.13841e+00 -3.04645e+00
       H  1.12390e+00 -5.06259e+00 -1.62693e+00
       O -3.78710e+01 -1.82062e+01  1.30902e-01
       H -3.74666e+01 -1.91314e+01  3.41587e-01
       H -3.70469e+01 -1.76699e+01  6.28612e-02
       O -9.76621e+00 -1.86108e+01 -2.08570e+01
       H -9.03997e+00 -1.79853e+01 -2.07905e+01
       H -9.68097e+00 -1.87935e+01 -2.18103e+01
       O -9.85056e+00 -2.49737e+01 -3.08145e+01
       H -9.41764e+00 -2.43456e+01 -3.13654e+01
       H -1.03065e+01 -2.43867e+01 -3.01615e+01
       O -1.52537e+01 -2.51239e+01  8.48266e-01
       H -1.45965e+01 -2.58357e+01  7.32767e-01
       H -1.51900e+01 -2.49702e+01  1.75655e+00
       O -1.85387e+01 -3.66748e+01 -1.74004e+01
       H -1.88719e+01 -3.57649e+01 -1.74388e+01
       H -1.78349e+01 -3.66249e+01 -1.80650e+01
       O -8.70298e+00 -5.60503e+00  5.09132e+00
       H -9.67158e+00 -5.65212e+00  5.09030e+00
       H -8.46744e+00 -4.79776e+00  4.57712e+00
       O  1.12410e+01 -4.65271e+00 -4.21394e+01
       H  1.08360e+01 -4.16820e+00 -4.14280e+01
       H  1.19154e+01 -5.16442e+00 -4.16306e+01
       O -2.30266e+00 -3.08491e+01 -2.26350e+01
       H -2.93959e+00 -3.02365e+01 -2.21803e+01
       H -2.89124e+00 -3.16277e+01 -2.28859e+01
       O -3.49921e+01 -1.76783e+01 -7.82140e+00
       H -3.51000e+01 -1.83190e+01 -7.11534e+00
       H -3.43035e+01 -1.83048e+01 -8.20017e+00
       O  1.11990e+01 -1.45438e+01 -1.74095e+01
       H  1.07665e+01 -1.49255e+01 -1.81409e+01
       H  1.11388e+01 -1.35926e+01 -1.75920e+01
       O -2.25409e+01 -5.16310e+01 -3.23140e+01
       H -2.16297e+01 -5.16756e+01 -3.26811e+01
       H -2.23050e+01 -5.15615e+01 -3.14311e+01
       O -1.49315e+01 -6.35645e+00 -4.36412e+01
       H -1.57153e+01 -6.80370e+00 -4.32505e+01
       H -1.51699e+01 -5.40668e+00 -4.33935e+01
       O -1.13595e+01  4.36389e+00 -3.67896e+01
       H -1.18083e+01  4.44825e+00 -3.59234e+01
       H -1.11520e+01  5.27288e+00 -3.70320e+01
       O -5.90445e+01 -2.48785e+01 -5.76722e+00
       H -5.89071e+01 -2.56305e+01 -5.25950e+00
       H -5.99487e+01 -2.47161e+01 -5.62312e+00
       O -3.23715e+01 -1.43325e+01 -7.25633e+00
       H -3.28075e+01 -1.34576e+01 -7.29379e+00
       H -3.16985e+01 -1.40729e+01 -6.66510e+00
       O -2.13577e+01 -2.38334e+01 -2.11767e+01
       H -2.16531e+01 -2.47714e+01 -2.10599e+01
       H -2.22170e+01 -2.34421e+01 -2.14235e+01
       O  9.02156e+00 -2.36741e+00  8.70016e-01
       H  9.36245e+00 -1.84729e+00  1.60550e+00
       H  8.82962e+00 -3.30018e+00  1.12896e+00
       O -3.22248e+00  6.01796e+00  6.25568e+00
       H -3.91949e+00  6.52625e+00  6.80411e+00
       H -2.39846e+00  6.50800e+00  6.19768e+00
       O -3.51594e+00 -1.44059e+00  1.91018e+00
       H -2.87219e+00 -9.12708e-01  1.47251e+00
       H -2.93283e+00 -2.03651e+00  2.35896e+00
       O -1.39113e+01 -8.05351e+00 -1.35789e+01
       H -1.31504e+01 -8.66694e+00 -1.33960e+01
       H -1.41259e+01 -8.37717e+00 -1.44573e+01
       O -9.83105e+00  1.82590e+01 -2.81899e+01
       H -1.03147e+01  1.77290e+01 -2.88480e+01
       H -1.02946e+01  1.91143e+01 -2.83501e+01
       O -1.51002e+01 -6.37207e+00 -8.89320e+00
       H -1.43620e+01 -6.85687e+00 -9.25396e+00
       H -1.57395e+01 -6.26250e+00 -9.63698e+00
       O -8.85824e+00 -3.33779e+01 -3.11278e+01
       H -8.32301e+00 -3.35141e+01 -3.03266e+01
       H -9.83995e+00 -3.35515e+01 -3.08298e+01
       O -1.59250e+01 -2.20845e+01 -1.31189e+01
       H -1.49409e+01 -2.19237e+01 -1.33209e+01
       H -1.58794e+01 -2.24461e+01 -1.22959e+01
       O -1.73741e+01 -4.30316e+01 -7.81865e+00
       H -1.71275e+01 -4.28238e+01 -6.90600e+00
       H -1.75119e+01 -4.22129e+01 -8.26684e+00
       O  7.48619e+00  4.30168e-01 -4.22353e+00
       H  6.85666e+00  3.91785e-01 -3.45771e+00
       H  6.91064e+00  1.55983e-01 -4.92976e+00
       O -2.38336e+00 -2.55892e+01 -3.60421e+01
       H -2.01507e+00 -2.47563e+01 -3.63312e+01
       H -3.17387e+00 -2.57119e+01 -3.65937e+01
       O  6.86634e+00 -6.66646e-02 -2.14443e+01
       H  7.26087e+00 -9.53204e-01 -2.14458e+01
       H  7.33703e+00  2.97145e-01 -2.06505e+01
       O -3.94636e+01 -1.67884e+01 -8.24787e+00
       H -3.96046e+01 -1.76328e+01 -8.76043e+00
       H -3.85706e+01 -1.66063e+01 -8.53667e+00
       O -1.74722e+01 -4.94519e+01 -2.17466e+01
       H -1.84166e+01 -4.96432e+01 -2.15996e+01
       H -1.72097e+01 -4.96116e+01 -2.08131e+01
       O -1.68345e+01 -2.76428e+01 -1.11852e+01
       H -1.67981e+01 -2.86116e+01 -1.11079e+01
       H -1.60764e+01 -2.74971e+01 -1.17137e+01
       O  5.47188e+00 -2.41155e+01 -1.86216e+01
       H  5.61591e+00 -2.37208e+01 -1.77427e+01
       H  5.16105e+00 -2.33337e+01 -1.90825e+01
       O -2.20524e+01 -4.01905e+01 -1.84053e+01
       H -2.18371e+01 -3.96510e+01 -1.75933e+01
       H -2.23424e+01 -4.10160e+01 -1.79581e+01
       O -3.78379e+01 -1.46701e+01 -2.22263e+01
       H -3.79519e+01 -1.53702e+01 -2.28787e+01
       H -3.71939e+01 -1.40845e+01 -2.27017e+01
       O -1.92857e+01 -2.04410e+01 -3.55927e+01
       H -1.83758e+01 -2.05378e+01 -3.52248e+01
       H -1.98686e+01 -2.07582e+01 -3.49351e+01
       O -1.73343e+01  7.18711e+00 -1.93598e+01
       H -1.77773e+01  6.32703e+00 -1.92451e+01
       H -1.77345e+01  7.42477e+00 -2.02402e+01
       O -2.41321e+01 -9.95433e+00 -1.25568e+01
       H -2.37514e+01 -9.47913e+00 -1.18630e+01
       H -2.50855e+01 -1.00086e+01 -1.22717e+01
       O -1.78100e+01 -2.73051e+01  1.35406e+01
       H -1.87286e+01 -2.73033e+01  1.32708e+01
       H -1.78482e+01 -2.76604e+01  1.44309e+01
       O  6.41499e+00 -1.03187e+01  4.04642e+00
       H  5.62220e+00 -9.85993e+00  4.26681e+00
       H  6.80805e+00 -9.54781e+00  3.66959e+00
       O -1.51247e+01 -2.27039e+01 -3.41467e+01
       H -1.45363e+01 -2.25694e+01 -3.34496e+01
       H -1.57248e+01 -2.33985e+01 -3.37939e+01
       O -1.17493e+01 -2.64223e+01 -3.53204e+01
       H -1.18410e+01 -2.65197e+01 -3.43472e+01
       H -1.15838e+01 -2.73835e+01 -3.54394e+01
       O -2.36586e+01 -3.70093e+01  9.83297e+00
       H -2.37990e+01 -3.66839e+01  8.89234e+00
       H -2.43349e+01 -3.77456e+01  9.82698e+00
       O -2.63986e+01 -2.62554e+01 -2.87744e+01
       H -2.62456e+01 -2.71873e+01 -2.87656e+01
       H -2.73392e+01 -2.62642e+01 -2.88548e+01
       O -9.45254e+00 -1.63881e+01  1.69475e+01
       H -8.69423e+00 -1.69640e+01  1.68299e+01
       H -8.91891e+00 -1.55598e+01  1.70588e+01
       O -3.83470e+01 -6.95559e+00 -3.58767e+00
       H -3.80838e+01 -7.68277e+00 -4.10616e+00
       H -3.92770e+01 -7.22117e+00 -3.75788e+00
       O -1.56693e+01 -2.64685e+01 -9.04232e+00
       H -1.47146e+01 -2.66424e+01 -9.34869e+00
       H -1.62352e+01 -2.69711e+01 -9.69545e+00
       O -1.93815e+01 -2.36615e+01 -1.94149e+01
       H -2.00094e+01 -2.34020e+01 -2.01106e+01
       H -1.89155e+01 -2.42706e+01 -2.00094e+01
       O -3.14751e+00 -1.21130e+01 -2.15750e+01
       H -2.60835e+00 -1.14460e+01 -2.20944e+01
       H -3.68427e+00 -1.15097e+01 -2.10811e+01
       O -1.01253e+01 -1.88026e+01 -1.11981e+01
       H -1.04242e+01 -1.97182e+01 -1.12764e+01
       H -1.10427e+01 -1.84044e+01 -1.13173e+01
       O -3.56044e+01  1.98072e+01 -1.38605e+01
       H -3.58071e+01  1.93752e+01 -1.29897e+01
       H -3.50074e+01  1.90927e+01 -1.41571e+01
       O -6.12409e-01 -2.01146e+01 -2.62360e+01
       H -3.63684e-01 -2.10907e+01 -2.63381e+01
       H -8.67667e-01 -2.01420e+01 -2.53279e+01
       O -4.81008e+00 -3.04433e+01 -4.71387e+01
       H -5.42985e+00 -3.06397e+01 -4.78702e+01
       H -4.01466e+00 -3.08144e+01 -4.75763e+01
       O -1.56342e+01 -1.89080e+01 -1.67852e+01
       H -1.60465e+01 -1.82380e+01 -1.62062e+01
       H -1.60445e+01 -1.97352e+01 -1.64904e+01
       O -8.82453e+00  5.87044e+00 -1.95376e+01
       H -9.25196e+00  6.18905e+00 -2.02735e+01
       H -7.89722e+00  5.77374e+00 -1.99024e+01
       O -1.21342e+01 -2.39955e+01 -4.03457e+01
       H -1.20167e+01 -2.38510e+01 -3.93814e+01
       H -1.15528e+01 -2.47567e+01 -4.04041e+01
       O -4.35439e+01 -2.84994e+01 -1.05704e+01
       H -4.30421e+01 -2.76920e+01 -1.08862e+01
       H -4.28712e+01 -2.92622e+01 -1.06947e+01
       O -2.22627e+01 -2.11180e+01  1.25780e+01
       H -2.21117e+01 -2.18142e+01  1.19015e+01
       H -2.25195e+01 -2.16650e+01  1.33839e+01
       O  3.74472e+00  5.39322e+00 -9.73521e-01
       H  3.09970e+00  6.10935e+00 -1.23495e+00
       H  3.21260e+00  4.86199e+00 -4.38676e-01
       O -2.68187e+01 -3.25946e+01 -8.19131e+00
       H -2.62182e+01 -3.22911e+01 -8.88048e+00
       H -2.75936e+01 -3.27267e+01 -8.76875e+00
       O  1.17840e+00 -7.91792e+00  1.33985e+01
       H  3.64267e-01 -8.25204e+00  1.29494e+01
       H  1.59007e+00 -7.40666e+00  1.27074e+01
       O -9.04843e+00 -8.68693e+00 -6.58821e+00
       H -9.95333e+00 -8.33556e+00 -6.49538e+00
       H -8.42579e+00 -7.89366e+00 -6.62495e+00
       O  1.11029e+01  1.61521e+01  5.26855e+00
       H  1.16754e+01  1.53777e+01  5.31653e+00
       H  1.10761e+01  1.64251e+01  6.20889e+00
       O -5.19979e+00 -9.11700e+00 -3.44855e+01
       H -6.11761e+00 -8.86298e+00 -3.44494e+01
       H -4.70099e+00 -8.37231e+00 -3.40417e+01
       O -6.60934e+00 -1.19553e+01 -3.23886e+01
       H -6.78037e+00 -1.29562e+01 -3.22765e+01
       H -5.72423e+00 -1.18744e+01 -3.19608e+01
       O -1.89578e+01 -9.27713e+00 -2.02050e+01
       H -1.86363e+01 -1.01686e+01 -1.98982e+01
       H -1.84223e+01 -9.24447e+00 -2.10456e+01
       O -2.28217e+01 -2.94437e+01 -4.07179e+01
       H -2.30152e+01 -2.92594e+01 -4.16184e+01
       H -2.32467e+01 -2.86664e+01 -4.03708e+01
       O -8.77097e+00  2.19657e+00  7.75814e+00
       H -8.83747e+00  3.15774e+00  7.51754e+00
       H -8.23341e+00  2.15281e+00  8.51276e+00
       O -1.77419e+01 -2.74160e+01 -1.40071e+01
       H -1.85974e+01 -2.70152e+01 -1.42084e+01
       H -1.71642e+01 -2.70268e+01 -1.47082e+01
       O  4.55332e+00 -7.59869e+00 -1.19411e+01
       H  4.72120e+00 -8.52576e+00 -1.17198e+01
       H  3.65018e+00 -7.57756e+00 -1.15556e+01
       O -8.55743e-01 -1.62663e+01 -2.83811e+00
       H -7.42448e-01 -1.70301e+01 -2.25765e+00
       H -1.27362e+00 -1.57240e+01 -2.17064e+00
       O  1.84047e+01  1.69349e+01 -2.23579e+01
       H  1.91001e+01  1.62425e+01 -2.24162e+01
       H  1.81492e+01  1.68703e+01 -2.14278e+01
       O -1.68114e+01 -2.00375e+01 -8.25588e+00
       H -1.72217e+01 -2.05174e+01 -9.06844e+00
       H -1.65489e+01 -2.08240e+01 -7.72934e+00
       O -1.99836e+01 -3.75413e+01 -3.21666e+00
       H -1.94885e+01 -3.77589e+01 -4.01037e+00
       H -2.02004e+01 -3.66729e+01 -3.47321e+00
       O -7.86956e+00 -3.64213e+01 -1.59350e+01
       H -7.25979e+00 -3.71809e+01 -1.61610e+01
       H -7.19673e+00 -3.59712e+01 -1.54118e+01
       O -5.04983e+00 -2.42415e+01 -1.78854e+01
       H -4.36273e+00 -2.43684e+01 -1.71370e+01
       H -5.87528e+00 -2.45962e+01 -1.75155e+01
       O -3.27055e+01 -9.68907e+00 -2.58780e+01
       H -3.32025e+01 -1.03423e+01 -2.63800e+01
       H -3.31797e+01 -9.81553e+00 -2.50997e+01
       O -1.77857e+01 -3.19561e+01 -2.13661e+01
       H -1.72730e+01 -3.18211e+01 -2.21825e+01
       H -1.84318e+01 -3.12079e+01 -2.14301e+01
       O -1.86515e+01 -6.72494e+00 -2.88876e+00
       H -1.83062e+01 -6.75925e+00 -2.02693e+00
       H -1.79499e+01 -7.13244e+00 -3.40354e+00
       O -1.85617e+01 -5.74221e+01 -5.05891e+01
       H -1.76740e+01 -5.77542e+01 -5.05209e+01
       H -1.88783e+01 -5.79299e+01 -5.13103e+01
       O -9.83005e+00 -2.42325e+01 -1.15561e+01
       H -1.07077e+01 -2.41766e+01 -1.11182e+01
       H -1.00853e+01 -2.45589e+01 -1.24405e+01
       O -1.51565e+01 -3.38930e+01 -1.50326e+01
       H -1.42739e+01 -3.39478e+01 -1.46885e+01
       H -1.51108e+01 -3.47081e+01 -1.55656e+01
       O -1.02299e+01 -4.84474e+00 -1.52794e+01
       H -9.42181e+00 -5.35269e+00 -1.52904e+01
       H -1.05536e+01 -5.27351e+00 -1.44525e+01
       O -2.49032e+01 -1.65727e+01 -1.61696e+01
       H -2.58399e+01 -1.67856e+01 -1.59164e+01
       H -2.46423e+01 -1.59979e+01 -1.54656e+01
       O -8.15068e+00 -1.67533e+01 -9.65520e-01
       H -9.05844e+00 -1.65528e+01 -7.85732e-01
       H -8.14000e+00 -1.77088e+01 -8.36171e-01
       O -5.09847e+00 -2.11770e+01 -5.35027e+01
       H -4.54423e+00 -2.16953e+01 -5.28603e+01
       H -5.72838e+00 -2.18841e+01 -5.36405e+01
       O -8.25698e+00 -2.20919e+01 -1.28353e+01
       H -8.52821e+00 -2.26464e+01 -1.20603e+01
       H -8.89293e+00 -2.21995e+01 -1.35346e+01
       O -2.37672e+01 -2.56469e+01 -1.32306e+01
       H -2.33722e+01 -2.59378e+01 -1.24137e+01
       H -2.43440e+01 -2.64193e+01 -1.34086e+01
       O -2.62484e+01 -1.47668e+01 -2.48350e+01
       H -2.70767e+01 -1.48387e+01 -2.43184e+01
       H -2.60186e+01 -1.57568e+01 -2.48725e+01
       O  3.10869e+00 -7.39228e+00 -2.40842e+01
       H  2.22196e+00 -7.63213e+00 -2.44029e+01
       H  3.02202e+00 -7.30857e+00 -2.30541e+01
       O -3.98201e+00 -2.17307e+00  1.81577e+01
       H -3.88350e+00 -3.11272e+00  1.83824e+01
       H -3.23323e+00 -2.02499e+00  1.75236e+01
       O -2.42022e+01 -2.50090e+01  1.00311e+01
       H -2.40805e+01 -2.55906e+01  1.07926e+01
       H -2.50278e+01 -2.46797e+01  1.02613e+01
       O -2.70606e+01  2.47272e+00 -4.32933e+00
       H -2.72721e+01  1.64096e+00 -3.83424e+00
       H -2.78852e+01  2.56118e+00 -4.80796e+00
       O -4.52140e+01 -1.60964e+01 -1.10176e+01
       H -4.44646e+01 -1.65955e+01 -1.06193e+01
       H -4.47572e+01 -1.57712e+01 -1.18279e+01
       O  5.48192e+00 -6.49511e+00  4.86130e+00
       H  4.86341e+00 -6.20751e+00  5.54113e+00
       H  5.30425e+00 -7.45193e+00  4.71216e+00
       O -3.26307e+01 -4.01527e+00 -5.72447e+01
       H -3.24021e+01 -3.43045e+00 -5.80266e+01
       H -3.19515e+01 -3.80831e+00 -5.66287e+01
       O -7.91955e+00 -2.59723e+01 -1.05484e+01
       H -8.04613e+00 -2.68567e+01 -1.09528e+01
       H -8.55442e+00 -2.54490e+01 -1.10263e+01
       O -2.68269e+00 -1.56943e+01 -3.21531e+01
       H -2.32110e+00 -1.48832e+01 -3.25237e+01
       H -3.49494e+00 -1.51699e+01 -3.19069e+01
       O -5.73540e+01 -1.19135e+01  1.25065e+00
       H -5.75978e+01 -1.10985e+01  1.64389e+00
       H -5.70101e+01 -1.15291e+01  4.12712e-01
       O -6.42443e-01 -1.04914e+01  6.96212e+00
       H -8.50796e-01 -1.00457e+01  6.14537e+00
       H  2.05014e-02 -1.12184e+01  6.72756e+00
       O -6.92116e+00 -2.93716e+00  2.74711e+01
       H -7.73725e+00 -2.40026e+00  2.75388e+01
       H -6.38329e+00 -2.54307e+00  2.67972e+01
       O -1.56650e+01 -3.92059e+01 -4.32538e+01
       H -1.58605e+01 -4.01321e+01 -4.30034e+01
       H -1.56794e+01 -3.87868e+01 -4.23635e+01
       O -1.40263e+01 -1.08664e+01 -7.99367e+00
       H -1.44224e+01 -1.14631e+01 -8.62579e+00
       H -1.47684e+01 -1.04004e+01 -7.61731e+00
       O -1.52730e+01 -1.27692e+01  9.12929e+00
       H -1.58792e+01 -1.33968e+01  9.58789e+00
       H -1.52856e+01 -1.30984e+01  8.16802e+00
       O -2.01820e+01 -3.20663e+00 -4.95221e+00
       H -2.08987e+01 -2.75858e+00 -5.45417e+00
       H -1.96544e+01 -3.65593e+00 -5.69141e+00
       O -3.42745e+01 -3.34463e-01  1.93973e+00
       H -3.49604e+01  2.78741e-02  1.29131e+00
       H -3.38658e+01 -1.04185e+00  1.45877e+00
       O -2.26042e+01 -2.15175e+01 -3.92167e+01
       H -2.19077e+01 -2.15538e+01 -3.98978e+01
       H -2.32527e+01 -2.21374e+01 -3.96199e+01
       O -1.28313e+01 -8.10604e+00  3.78634e+00
       H -1.35966e+01 -7.51808e+00  3.82783e+00
       H -1.22104e+01 -7.34494e+00  3.91156e+00
       O -7.91650e+00 -3.48051e+01 -3.72946e+00
       H -8.52197e+00 -3.51488e+01 -4.39445e+00
       H -8.18641e+00 -3.52028e+01 -2.85539e+00
       O  5.45193e+00 -5.11705e+01 -2.34743e+00
       H  6.28096e+00 -5.07610e+01 -2.65189e+00
       H  5.61232e+00 -5.21232e+01 -2.56544e+00
       O -8.59676e+00 -3.06793e+00  4.19172e+00
       H -9.36415e+00 -3.40681e+00  3.66931e+00
       H -8.44657e+00 -2.22298e+00  3.70510e+00
       O -2.46832e+01 -2.25099e+01  2.24316e+00
       H -2.43250e+01 -2.24572e+01  3.09618e+00
       H -2.56749e+01 -2.24066e+01  2.37686e+00
       O  8.22501e+00  8.61607e+00 -4.28563e+00
       H  9.12011e+00  8.41281e+00 -4.01298e+00
       H  7.91334e+00  7.69460e+00 -4.48602e+00
       O -4.61393e+00 -2.98535e+01 -1.40424e+01
       H -3.69747e+00 -2.95683e+01 -1.39325e+01
       H -4.83919e+00 -2.94122e+01 -1.48640e+01
       O -2.14283e+01 -2.80534e+01 -1.37982e+01
       H -2.08062e+01 -2.85838e+01 -1.32690e+01
       H -2.22492e+01 -2.80528e+01 -1.33127e+01
       O -2.49049e+01 -3.32044e+01 -1.23281e+01
       H -2.55597e+01 -3.37719e+01 -1.18850e+01
       H -2.52341e+01 -3.30881e+01 -1.32577e+01
       O -1.62978e+00 -7.46832e+00 -2.30974e-01
       H -1.24514e+00 -7.27988e+00  6.30624e-01
       H -2.57258e+00 -7.20532e+00 -4.25826e-02
       O -7.50341e+00 -1.77450e+01 -1.45721e+01
       H -8.24035e+00 -1.83273e+01 -1.48526e+01
       H -8.13162e+00 -1.69932e+01 -1.42509e+01
       O -1.37786e+01 -2.74965e+01 -1.78678e+01
       H -1.39559e+01 -2.83344e+01 -1.84056e+01
       H -1.40846e+01 -2.78708e+01 -1.70283e+01
       O  1.93378e+00 -1.39683e+01 -8.61644e+00
       H  1.06052e+00 -1.37578e+01 -8.31338e+00
       H  2.23213e+00 -1.44271e+01 -7.82789e+00
       O -9.12066e+00 -2.94132e+01 -1.42950e+01
       H -9.13013e+00 -2.99168e+01 -1.50760e+01
       H -8.44422e+00 -2.99073e+01 -1.38028e+01
       O -2.38661e+01 -1.35408e+01 -2.31777e+01
       H -2.32850e+01 -1.41380e+01 -2.36440e+01
       H -2.43588e+01 -1.41980e+01 -2.26194e+01
       O -3.00518e+01  1.75730e+00 -1.15667e+00
       H -3.09138e+01  1.45750e+00 -8.27378e-01
       H -3.03854e+01  2.30054e+00 -1.86994e+00
       O -1.31337e+01 -3.00516e+00  1.87488e+00
       H -1.27285e+01 -3.65600e+00  1.25508e+00
       H -1.28822e+01 -3.23125e+00  2.80068e+00
       O -2.77337e+01 -7.84502e+00 -1.24750e+01
       H -2.73279e+01 -7.85751e+00 -1.33921e+01
       H -2.79615e+01 -6.87810e+00 -1.22986e+01
       O  2.83364e+00  7.21667e+00 -2.53084e+01
       H  2.11004e+00  6.55456e+00 -2.54336e+01
       H  2.41295e+00  7.89002e+00 -2.59684e+01
       O -2.03440e+01  2.01579e-01 -4.00246e+00
       H -2.11618e+01  2.39423e-01 -3.53986e+00
       H -2.05476e+01 -1.06159e-02 -4.89335e+00
       O -2.53925e+01 -2.16669e+01 -7.64570e+00
       H -2.48316e+01 -2.17518e+01 -6.88275e+00
       H -2.48179e+01 -2.15208e+01 -8.37158e+00
       O  9.54176e+00  9.87576e+00  8.83664e+00
       H  9.60845e+00  1.02804e+01  7.95925e+00
       H  8.58827e+00  9.98191e+00  9.13661e+00
       O -1.78981e+01 -1.24233e+01 -1.03239e+00
       H -1.73091e+01 -1.18956e+01 -1.55536e+00
       H -1.77097e+01 -1.19434e+01 -2.13686e-01
       O -4.60814e+00 -2.06002e+01 -3.65520e+01
       H -4.08194e+00 -1.99942e+01 -3.60149e+01
       H -5.26399e+00 -2.08018e+01 -3.58622e+01
       O -2.33998e+00 -9.69761e+00 -7.57594e+00
       H -2.96061e+00 -1.01656e+01 -7.04942e+00
       H -2.79840e+00 -8.87778e+00 -7.62713e+00
       O  8.81297e-01 -1.73708e+01  1.44223e+00
       H  8.30872e-01 -1.79441e+01  6.90278e-01
       H -8.77700e-02 -1.70892e+01  1.43609e+00
       O -3.13263e+01 -1.71395e+01 -7.15144e+00
       H -3.19764e+01 -1.78218e+01 -7.56377e+00
       H -3.16301e+01 -1.62670e+01 -7.50402e+00
       O -1.19442e+01 -1.25789e+01 -2.68300e+01
       H -1.12374e+01 -1.19601e+01 -2.67882e+01
       H -1.19615e+01 -1.27604e+01 -2.78054e+01
       O -1.79269e+01 -1.81111e+01 -6.73255e+00
       H -1.72347e+01 -1.81288e+01 -6.01617e+00
       H -1.75138e+01 -1.86472e+01 -7.41533e+00
       O -1.01115e+01 -2.21260e+01 -1.73490e+01
       H -1.09035e+01 -2.20358e+01 -1.78408e+01
       H -9.46289e+00 -2.15748e+01 -1.78479e+01
       O -2.21640e+01  1.54566e+01 -2.56079e+01
       H -2.13684e+01  1.60480e+01 -2.59056e+01
       H -2.17866e+01  1.50522e+01 -2.47710e+01
       O  9.03865e+00 -1.73795e+01 -2.97384e+01
       H  8.95668e+00 -1.83759e+01 -2.96824e+01
       H  9.73478e+00 -1.73041e+01 -2.90711e+01
       O -1.45701e+01 -3.58632e+01 -1.22004e+01
       H -1.54530e+01 -3.60391e+01 -1.24831e+01
       H -1.42670e+01 -3.67965e+01 -1.19780e+01
       O -1.63862e+01 -1.99640e+00  9.17629e+00
       H -1.54818e+01 -2.31308e+00  9.15813e+00
       H -1.66216e+01 -2.09338e+00  1.01072e+01
       O -3.82539e+01 -3.58893e+01 -1.96215e+01
       H -3.85329e+01 -3.66999e+01 -2.00542e+01
       H -3.75366e+01 -3.56019e+01 -2.02108e+01
       O -8.23164e+00 -1.21302e+01 -1.96606e+01
       H -8.39646e+00 -1.12896e+01 -1.91647e+01
       H -7.44768e+00 -1.24439e+01 -1.92418e+01
       O -4.24500e+01 -3.62958e+01 -2.44021e+01
       H -4.33147e+01 -3.59043e+01 -2.46164e+01
       H -4.27104e+01 -3.69106e+01 -2.36596e+01
       O -5.25478e+01 -2.43021e+01 -9.69673e+00
       H -5.22466e+01 -2.48062e+01 -8.89492e+00
       H -5.16601e+01 -2.41528e+01 -1.01929e+01
       O  4.12988e+00 -7.73864e-01  5.48150e+00
       H  4.33098e+00 -1.13234e+00  6.32469e+00
       H  3.19383e+00 -1.06391e+00  5.39373e+00
       O -8.26266e+00 -2.66132e+01 -4.50054e+01
       H -8.16250e+00 -2.75289e+01 -4.47266e+01
       H -7.26376e+00 -2.63851e+01 -4.51034e+01
       O -7.28216e+00 -2.21327e+01 -2.07238e+01
       H -7.31522e+00 -2.18660e+01 -2.16446e+01
       H -7.73244e+00 -2.30559e+01 -2.07627e+01
       O -8.01429e+00 -1.87381e+01  4.06236e+00
       H -8.06453e+00 -1.96125e+01  4.31940e+00
       H -7.77135e+00 -1.82164e+01  4.84681e+00
       O -5.72041e+01 -2.31382e+01 -4.78286e+00
       H -5.77645e+01 -2.39076e+01 -5.06718e+00
       H -5.74959e+01 -2.29539e+01 -3.87556e+00
       O -1.92331e+01 -2.02334e+01 -2.68750e-01
       H -1.86792e+01 -1.98443e+01  4.81730e-01
       H -1.99929e+01 -1.96347e+01 -3.00867e-01
       O -3.01461e+01  2.42204e+01 -1.41388e+01
       H -2.98534e+01  2.46590e+01 -1.33599e+01
       H -3.09413e+01  2.47531e+01 -1.43350e+01
       O  1.23415e+01  3.20210e+00 -1.89868e+00
       H  1.22656e+01  3.94666e+00 -1.26008e+00
       H  1.15103e+01  2.91359e+00 -1.61023e+00
       O -1.47185e+01  4.69652e+00  7.68932e+00
       H -1.50396e+01  5.13222e+00  6.93011e+00
       H -1.43620e+01  5.48949e+00  8.02515e+00
       O -3.33538e+01 -1.17571e+01 -6.51560e+00
       H -3.29736e+01 -1.10220e+01 -6.01088e+00
       H -3.31211e+01 -1.14716e+01 -7.41161e+00
       O -4.37193e+01 -1.98999e+01  1.10298e+01
       H -4.45549e+01 -1.95132e+01  1.13171e+01
       H -4.30886e+01 -1.93284e+01  1.14287e+01
       O -6.99671e+00  8.49211e+00 -1.91178e+01
       H -6.68945e+00  9.13018e+00 -1.84984e+01
       H -7.07158e+00  7.84895e+00 -1.84718e+01
       O -9.99586e+00 -2.84984e+01 -3.85281e+01
       H -9.42365e+00 -2.92634e+01 -3.84374e+01
       H -1.05050e+01 -2.86480e+01 -3.77063e+01
       O -9.42485e+00 -2.54349e+01  6.44611e+00
       H -9.73539e+00 -2.60074e+01  5.76382e+00
       H -8.73354e+00 -2.50132e+01  5.88358e+00
       O -9.48360e+00  9.34578e-01 -2.86723e+01
       H -1.03466e+01  1.01371e+00 -2.90067e+01
       H -9.17304e+00  2.70306e-01 -2.93043e+01
       O -1.18069e+01  5.20582e-01 -8.27126e+00
       H -1.22241e+01  1.26024e+00 -8.84301e+00
       H -1.12985e+01  7.97040e-02 -9.01632e+00
       O -7.76672e-01 -9.69226e+00  2.03496e+00
       H -1.58551e+00 -1.02042e+01  1.83695e+00
       H -4.82349e-01 -9.46652e+00  1.14069e+00
       O -3.47787e+01  1.39251e+00 -2.85572e+01
       H -3.46136e+01  1.80330e+00 -2.94440e+01
       H -3.55775e+01  8.61718e-01 -2.85529e+01
       O -4.37620e+01 -1.79115e+01 -9.39530e+00
       H -4.29596e+01 -1.83142e+01 -8.97612e+00
       H -4.44281e+01 -1.83526e+01 -8.91310e+00
       O -2.86434e+01 -2.80460e+01 -1.39451e+01
       H -2.80133e+01 -2.74489e+01 -1.43390e+01
       H -2.84554e+01 -2.77024e+01 -1.30810e+01
       O -1.44301e+01 -1.34079e+01 -5.07854e+01
       H -1.39061e+01 -1.33271e+01 -4.99368e+01
       H -1.51508e+01 -1.27848e+01 -5.05559e+01
       O -1.83248e+01 -4.38424e+00 -6.71311e+00
       H -1.84270e+01 -5.30256e+00 -6.58164e+00
       H -1.75705e+01 -4.22483e+00 -6.10853e+00
       O -2.95454e+01 -2.62852e+01 -3.77461e+01
       H -2.88813e+01 -2.67791e+01 -3.73362e+01