4
# CELL(abcABC): 1000.00000  1000.00000  1000.00000    90.00000    90.00000    90.00000  Step:           0  Bead:       0 positions{angstrom}  cell{angstrom}
       O -3.15373e+00  1.07067e+00  3.50350e-01
       H -2.86575e+00  2.56366e-01  7.46569e-01
       H -2.86340e+00  1.68195e+00  1.00081e+00
       H -3.59638e+00  1.13699e+00 -6.22970e-01
4
# CELL(abcABC): 1000.00000  1000.00000  1000.00000    90.00000    90.00000    90.00000  Step:           1  Bead:       0 positions{angstrom}  cell{angstrom}
       O -3.15209e+00  1.07088e+00  3.49673e-01
       H -2.87548e+00  2.48162e-01  7.50902e-01
       H -2.86281e+00  1.68335e+00  1.00296e+00
       H -3.61322e+00  1.14047e+00 -6.18704e-01
4
# CELL(abcABC): 1000.00000  1000.00000  1000.00000    90.00000    90.00000    90.00000  Step:           2  Bead:       0 positions{angstrom}  cell{angstrom}
       O -3.15062e+00  1.07089e+00  3.48759e-01
       H -2.88564e+00  2.38925e-01  7.55632e-01
       H -2.85983e+00  1.68854e+00  1.00690e+00
       H -3.62942e+00  1.14435e+00 -6.12869e-01
4
# CELL(abcABC): 1000.00000  1000.00000  1000.00000    90.00000    90.00000    90.00000  Step:           3  Bead:       0 positions{angstrom}  cell{angstrom}
       O -3.14916e+00  1.07076e+00  3.47612e-01
       H -2.89574e+00  2.28129e-01  7.61728e-01
       H -2.85660e+00  1.69790e+00  1.01261e+00
       H -3.64576e+00  1.14791e+00 -6.06471e-01
4
# CELL(abcABC): 1000.00000  1000.00000  1000.00000    90.00000    90.00000    90.00000  Step:           4  Bead:       0 positions{angstrom}  cell{angstrom}
       O -3.14773e+00  1.07051e+00  3.46490e-01
       H -2.90676e+00  2.16772e-01  7.65938e-01
       H -2.85263e+00  1.70989e+00  1.01802e+00
       H -3.66136e+00  1.15117e+00 -5.98271e-01
4
# CELL(abcABC): 1000.00000  1000.00000  1000.00000    90.00000    90.00000    90.00000  Step:           5  Bead:       0 positions{angstrom}  cell{angstrom}
       O -3.14619e+00  1.07002e+00  3.45451e-01
       H -2.91938e+00  2.07000e-01  7.68760e-01
       H -2.84965e+00  1.72378e+00  1.02355e+00
       H -3.67623e+00  1.15483e+00 -5.90136e-01
4
# CELL(abcABC): 1000.00000  1000.00000  1000.00000    90.00000    90.00000    90.00000  Step:           6  Bead:       0 positions{angstrom}  cell{angstrom}
       O -3.14449e+00  1.06952e+00  3.44577e-01
       H -2.93276e+00  1.99717e-01  7.69332e-01
       H -2.84806e+00  1.73553e+00  1.02620e+00
       H -3.69139e+00  1.15831e+00 -5.79494e-01
4
# CELL(abcABC): 1000.00000  1000.00000  1000.00000    90.00000    90.00000    90.00000  Step:           7  Bead:       0 positions{angstrom}  cell{angstrom}
       O -3.14279e+00  1.06887e+00  3.43689e-01
       H -2.94542e+00  1.95029e-01  7.69850e-01
       H -2.84765e+00  1.74538e+00  1.02713e+00
       H -3.70610e+00  1.16341e+00 -5.66839e-01
4
# CELL(abcABC): 1000.00000  1000.00000  1000.00000    90.00000    90.00000    90.00000  Step:           8  Bead:       0 positions{angstrom}  cell{angstrom}
       O -3.14114e+00  1.06823e+00  3.43058e-01
       H -2.95762e+00  1.93092e-01  7.68407e-01
       H -2.84735e+00  1.75194e+00  1.02449e+00
       H -3.72039e+00  1.16899e+00 -5.52735e-01
4
# CELL(abcABC): 1000.00000  1000.00000  1000.00000    90.00000    90.00000    90.00000  Step:           9  Bead:       0 positions{angstrom}  cell{angstrom}
       O -3.13952e+00  1.06770e+00  3.42497e-01
       H -2.97003e+00  1.92909e-01  7.66946e-01
       H -2.84710e+00  1.75579e+00  1.01943e+00
       H -3.73401e+00  1.17374e+00 -5.37311e-01
4
# CELL(abcABC): 1000.00000  1000.00000  1000.00000    90.00000    90.00000    90.00000  Step:          10  Bead:       0 positions{angstrom}  cell{angstrom}
       O -3.13791e+00  1.06716e+00  3.42238e-01
       H -2.98223e+00  1.95020e-01  7.63776e-01
       H -2.84761e+00  1.75722e+00  1.01075e+00
       H -3.74684e+00  1.17883e+00 -5.21341e-01
4
# CELL(abcABC): 1000.00000  1000.00000  1000.00000    90.00000    90.00000    90.00000  Step:          11  Bead:       0 positions{angstrom}  cell{angstrom}
       O -3.13635e+00  1.06670e+00  3.42260e-01
       H -2.99375e+00  1.99663e-01  7.58671e-01
       H -2.85010e+00  1.75538e+00  9.99122e-01
       H -3.75762e+00  1.18324e+00 -5.04973e-01
4
# CELL(abcABC): 1000.00000  1000.00000  1000.00000    90.00000    90.00000    90.00000  Step:          12  Bead:       0 positions{angstrom}  cell{angstrom}
       O -3.13502e+00  1.06641e+00  3.42430e-01
       H -3.00314e+00  2.05163e-01  7.53078e-01
       H -2.85306e+00  1.74980e+00  9.84676e-01
       H -3.76625e+00  1.18797e+00 -4.87632e-01
4
# CELL(abcABC): 1000.00000  1000.00000  1000.00000    90.00000    90.00000    90.00000  Step:          13  Bead:       0 positions{angstrom}  cell{angstrom}
       O -3.13394e+00  1.06624e+00  3.42560e-01
       H -3.01133e+00  2.11405e-01  7.48098e-01
       H -2.85460e+00  1.74251e+00  9.69486e-01
       H -3.77372e+00  1.19175e+00 -4.69522e-01
4
# CELL(abcABC): 1000.00000  1000.00000  1000.00000    90.00000    90.00000    90.00000  Step:          14  Bead:       0 positions{angstrom}  cell{angstrom}
       O -3.13315e+00  1.06613e+00  3.42522e-01
       H -3.01678e+00  2.16572e-01  7.44483e-01
       H -2.85494e+00  1.73551e+00  9.54775e-01
       H -3.78046e+00  1.19524e+00 -4.50600e-01
4
# CELL(abcABC): 1000.00000  1000.00000  1000.00000    90.00000    90.00000    90.00000  Step:          15  Bead:       0 positions{angstrom}  cell{angstrom}
       O -3.13258e+00  1.06597e+00  3.42034e-01
       H -3.02268e+00  2.19677e-01  7.44446e-01
       H -2.85460e+00  1.73008e+00  9.42034e-01
       H -3.78401e+00  1.20021e+00 -4.30074e-01
4
# CELL(abcABC): 1000.00000  1000.00000  1000.00000    90.00000    90.00000    90.00000  Step:          16  Bead:       0 positions{angstrom}  cell{angstrom}
       O -3.13235e+00  1.06572e+00  3.41236e-01
       H -3.02604e+00  2.20490e-01  7.45734e-01
       H -2.85268e+00  1.72801e+00  9.32201e-01
       H -3.78615e+00  1.20542e+00 -4.08862e-01
4
# CELL(abcABC): 1000.00000  1000.00000  1000.00000    90.00000    90.00000    90.00000  Step:          17  Bead:       0 positions{angstrom}  cell{angstrom}
       O -3.13234e+00  1.06540e+00  3.40098e-01
       H -3.02724e+00  2.19840e-01  7.48926e-01
       H -2.84977e+00  1.72967e+00  9.24838e-01
       H -3.78803e+00  1.20945e+00 -3.86627e-01
4
# CELL(abcABC): 1000.00000  1000.00000  1000.00000    90.00000    90.00000    90.00000  Step:          18  Bead:       0 positions{angstrom}  cell{angstrom}
       O -3.13258e+00  1.06490e+00  3.38647e-01
       H -3.02810e+00  2.18404e-01  7.53813e-01
       H -2.84368e+00  1.73456e+00  9.20887e-01
       H -3.78950e+00  1.21398e+00 -3.64522e-01
4
# CELL(abcABC): 1000.00000  1000.00000  1000.00000    90.00000    90.00000    90.00000  Step:          19  Bead:       0 positions{angstrom}  cell{angstrom}
       O -3.13315e+00  1.06435e+00  3.36942e-01
       H -3.02727e+00  2.15692e-01  7.60386e-01
       H -2.83652e+00  1.74158e+00  9.19210e-01
       H -3.78845e+00  1.21837e+00 -3.42361e-01
4
# CELL(abcABC): 1000.00000  1000.00000  1000.00000    90.00000    90.00000    90.00000  Step:          20  Bead:       0 positions{angstrom}  cell{angstrom}
       O -3.13390e+00  1.06377e+00  3.35174e-01
       H -3.02519e+00  2.12960e-01  7.66322e-01
       H -2.82883e+00  1.75048e+00  9.19836e-01
       H -3.78624e+00  1.22135e+00 -3.20857e-01
4
# CELL(abcABC): 1000.00000  1000.00000  1000.00000    90.00000    90.00000    90.00000  Step:          21  Bead:       0 positions{angstrom}  cell{angstrom}
       O -3.13486e+00  1.06316e+00  3.33492e-01
       H -3.02252e+00  2.09881e-01  7.71352e-01
       H -2.81854e+00  1.76053e+00  9.22388e-01
       H -3.78398e+00  1.22412e+00 -3.01738e-01
4
# CELL(abcABC): 1000.00000  1000.00000  1000.00000    90.00000    90.00000    90.00000  Step:          22  Bead:       0 positions{angstrom}  cell{angstrom}
       O -3.13595e+00  1.06248e+00  3.32062e-01
       H -3.02007e+00  2.06659e-01  7.77142e-01
       H -2.80563e+00  1.77007e+00  9.23085e-01
       H -3.78200e+00  1.22855e+00 -2.85528e-01
4
# CELL(abcABC): 1000.00000  1000.00000  1000.00000    90.00000    90.00000    90.00000  Step:          23  Bead:       0 positions{angstrom}  cell{angstrom}
       O -3.13709e+00  1.06184e+00  3.31102e-01
       H -3.01676e+00  2.05299e-01  7.81758e-01
       H -2.79176e+00  1.77813e+00  9.22864e-01
       H -3.78119e+00  1.23199e+00 -2.74682e-01
4
# CELL(abcABC): 1000.00000  1000.00000  1000.00000    90.00000    90.00000    90.00000  Step:          24  Bead:       0 positions{angstrom}  cell{angstrom}
       O -3.13820e+00  1.06119e+00  3.30521e-01
       H -3.01226e+00  2.04629e-01  7.85402e-01
       H -2.77783e+00  1.78433e+00  9.20750e-01
       H -3.78188e+00  1.23683e+00 -2.66996e-01
4
# CELL(abcABC): 1000.00000  1000.00000  1000.00000    90.00000    90.00000    90.00000  Step:          25  Bead:       0 positions{angstrom}  cell{angstrom}
       O -3.13919e+00  1.06073e+00  3.30277e-01
       H -3.00734e+00  2.04883e-01  7.88768e-01
       H -2.76493e+00  1.78625e+00  9.16104e-01
       H -3.78404e+00  1.24188e+00 -2.61839e-01
4
# CELL(abcABC): 1000.00000  1000.00000  1000.00000    90.00000    90.00000    90.00000  Step:          26  Bead:       0 positions{angstrom}  cell{angstrom}
       O -3.14005e+00  1.06048e+00  3.30455e-01
       H -3.00202e+00  2.06526e-01  7.90217e-01
       H -2.75262e+00  1.78394e+00  9.08316e-01
       H -3.78811e+00  1.24651e+00 -2.58315e-01
4
# CELL(abcABC): 1000.00000  1000.00000  1000.00000    90.00000    90.00000    90.00000  Step:          27  Bead:       0 positions{angstrom}  cell{angstrom}
       O -3.14087e+00  1.06034e+00  3.31093e-01
       H -2.99655e+00  2.11099e-01  7.89760e-01
       H -2.74121e+00  1.77693e+00  8.97333e-01
       H -3.79187e+00  1.25120e+00 -2.57008e-01
4
# CELL(abcABC): 1000.00000  1000.00000  1000.00000    90.00000    90.00000    90.00000  Step:          28  Bead:       0 positions{angstrom}  cell{angstrom}
       O -3.14153e+00  1.06032e+00  3.32058e-01
       H -2.99179e+00  2.15699e-01  7.88064e-01
       H -2.72998e+00  1.76671e+00  8.84144e-01
       H -3.79739e+00  1.25715e+00 -2.57437e-01
4
# CELL(abcABC): 1000.00000  1000.00000  1000.00000    90.00000    90.00000    90.00000  Step:          29  Bead:       0 positions{angstrom}  cell{angstrom}
       O -3.14214e+00  1.06035e+00  3.33356e-01
       H -2.98599e+00  2.21657e-01  7.84059e-01
       H -2.72012e+00  1.75399e+00  8.69135e-01
       H -3.80336e+00  1.26344e+00 -2.59035e-01
4
# CELL(abcABC): 1000.00000  1000.00000  1000.00000    90.00000    90.00000    90.00000  Step:          30  Bead:       0 positions{angstrom}  cell{angstrom}
       O -3.14274e+00  1.06033e+00  3.34841e-01
       H -2.97936e+00  2.28894e-01  7.80258e-01
       H -2.71038e+00  1.73999e+00  8.53607e-01
       H -3.81029e+00  1.27056e+00 -2.63277e-01
4
# CELL(abcABC): 1000.00000  1000.00000  1000.00000    90.00000    90.00000    90.00000  Step:          31  Bead:       0 positions{angstrom}  cell{angstrom}
       O -3.14352e+00  1.06021e+00  3.36497e-01
       H -2.97063e+00  2.35646e-01  7.76513e-01
       H -2.69920e+00  1.72733e+00  8.37507e-01
       H -3.81781e+00  1.27836e+00 -2.69710e-01
4
# CELL(abcABC): 1000.00000  1000.00000  1000.00000    90.00000    90.00000    90.00000  Step:          32  Bead:       0 positions{angstrom}  cell{angstrom}
       O -3.14440e+00  1.06017e+00  3.37979e-01
       H -2.96221e+00  2.38968e-01  7.73649e-01
       H -2.68590e+00  1.71757e+00  8.23602e-01
       H -3.82556e+00  1.28539e+00 -2.76467e-01
4
# CELL(abcABC): 1000.00000  1000.00000  1000.00000    90.00000    90.00000    90.00000  Step:          33  Bead:       0 positions{angstrom}  cell{angstrom}
       O -3.14544e+00  1.06024e+00  3.39288e-01
       H -2.95374e+00  2.39506e-01  7.72474e-01
       H -2.67012e+00  1.70940e+00  8.11785e-01
       H -3.83331e+00  1.29199e+00 -2.84252e-01
4
# CELL(abcABC): 1000.00000  1000.00000  1000.00000    90.00000    90.00000    90.00000  Step:          34  Bead:       0 positions{angstrom}  cell{angstrom}
       O -3.14654e+00  1.06030e+00  3.40599e-01
       H -2.94434e+00  2.37644e-01  7.71536e-01
       H -2.65375e+00  1.70383e+00  8.02190e-01
       H -3.84156e+00  1.29845e+00 -2.94529e-01
4
# CELL(abcABC): 1000.00000  1000.00000  1000.00000    90.00000    90.00000    90.00000  Step:          35  Bead:       0 positions{angstrom}  cell{angstrom}
       O -3.14788e+00  1.06028e+00  3.41817e-01
       H -2.93293e+00  2.33694e-01  7.70019e-01
       H -2.63620e+00  1.70237e+00  7.95152e-01
       H -3.84931e+00  1.30419e+00 -3.05316e-01
4
# CELL(abcABC): 1000.00000  1000.00000  1000.00000    90.00000    90.00000    90.00000  Step:          36  Bead:       0 positions{angstrom}  cell{angstrom}
       O -3.14942e+00  1.06013e+00  3.42994e-01
       H -2.92117e+00  2.28232e-01  7.67801e-01
       H -2.61655e+00  1.70488e+00  7.88752e-01
       H -3.85629e+00  1.30945e+00 -3.15371e-01
4
# CELL(abcABC): 1000.00000  1000.00000  1000.00000    90.00000    90.00000    90.00000  Step:          37  Bead:       0 positions{angstrom}  cell{angstrom}
       O -3.15113e+00  1.06003e+00  3.44049e-01
       H -2.90890e+00  2.22697e-01  7.66804e-01
       H -2.59526e+00  1.70846e+00  7.82632e-01
       H -3.86268e+00  1.31300e+00 -3.25007e-01
4
# CELL(abcABC): 1000.00000  1000.00000  1000.00000    90.00000    90.00000    90.00000  Step:          38  Bead:       0 positions{angstrom}  cell{angstrom}
       O -3.15273e+00  1.05995e+00  3.45313e-01
       H -2.89804e+00  2.16776e-01  7.63727e-01
       H -2.57366e+00  1.71146e+00  7.76230e-01
       H -3.86978e+00  1.31722e+00 -3.35593e-01
4
# CELL(abcABC): 1000.00000  1000.00000  1000.00000    90.00000    90.00000    90.00000  Step:          39  Bead:       0 positions{angstrom}  cell{angstrom}
       O -3.15447e+00  1.06005e+00  3.46556e-01
       H -2.88709e+00  2.10704e-01  7.60009e-01
       H -2.55227e+00  1.71275e+00  7.70103e-01
       H -3.87450e+00  1.32049e+00 -3.45482e-01
4
# CELL(abcABC): 1000.00000  1000.00000  1000.00000    90.00000    90.00000    90.00000  Step:          40  Bead:       0 positions{angstrom}  cell{angstrom}
       O -3.15616e+00  1.06017e+00  3.47725e-01
       H -2.87704e+00  2.05821e-01  7.55871e-01
       H -2.53202e+00  1.71274e+00  7.64515e-01
       H -3.87787e+00  1.32341e+00 -3.54312e-01
4
# CELL(abcABC): 1000.00000  1000.00000  1000.00000    90.00000    90.00000    90.00000  Step:          41  Bead:       0 positions{angstrom}  cell{angstrom}
       O -3.15770e+00  1.06035e+00  3.48967e-01
       H -2.86848e+00  2.03173e-01  7.49774e-01
       H -2.51333e+00  1.71098e+00  7.57817e-01
       H -3.88065e+00  1.32490e+00 -3.61230e-01
4
# CELL(abcABC): 1000.00000  1000.00000  1000.00000    90.00000    90.00000    90.00000  Step:          42  Bead:       0 positions{angstrom}  cell{angstrom}
       O -3.15916e+00  1.06078e+00  3.50388e-01
       H -2.85980e+00  2.00332e-01  7.41801e-01
       H -2.49711e+00  1.70668e+00  7.49866e-01
       H -3.88248e+00  1.32531e+00 -3.67865e-01
4
# CELL(abcABC): 1000.00000  1000.00000  1000.00000    90.00000    90.00000    90.00000  Step:          43  Bead:       0 positions{angstrom}  cell{angstrom}
       O -3.16036e+00  1.06125e+00  3.51945e-01
       H -2.85288e+00  2.00100e-01  7.31926e-01
       H -2.48389e+00  1.70096e+00  7.40498e-01
       H -3.88354e+00  1.32372e+00 -3.73340e-01
4
# CELL(abcABC): 1000.00000  1000.00000  1000.00000    90.00000    90.00000    90.00000  Step:          44  Bead:       0 positions{angstrom}  cell{angstrom}
       O -3.16128e+00  1.06189e+00  3.53605e-01
       H -2.84726e+00  2.00821e-01  7.20029e-01
       H -2.47390e+00  1.69213e+00  7.29102e-01
       H -3.88453e+00  1.32178e+00 -3.76383e-01
4
# CELL(abcABC): 1000.00000  1000.00000  1000.00000    90.00000    90.00000    90.00000  Step:          45  Bead:       0 positions{angstrom}  cell{angstrom}
       O -3.16185e+00  1.06267e+00  3.55392e-01
       H -2.84367e+00  2.02984e-01  7.06286e-01
       H -2.46641e+00  1.68032e+00  7.15583e-01
       H -3.88650e+00  1.31904e+00 -3.77493e-01
4
# CELL(abcABC): 1000.00000  1000.00000  1000.00000    90.00000    90.00000    90.00000  Step:          46  Bead:       0 positions{angstrom}  cell{angstrom}
       O -3.16225e+00  1.06358e+00  3.57232e-01
       H -2.84149e+00  2.06542e-01  6.91235e-01
       H -2.46179e+00  1.66593e+00  7.00650e-01
       H -3.88697e+00  1.31535e+00 -3.76717e-01
4
# CELL(abcABC): 1000.00000  1000.00000  1000.00000    90.00000    90.00000    90.00000  Step:          47  Bead:       0 positions{angstrom}  cell{angstrom}
       O -3.16247e+00  1.06448e+00  3.59157e-01
       H -2.84036e+00  2.09868e-01  6.75931e-01
       H -2.45900e+00  1.65095e+00  6.84400e-01
       H -3.88744e+00  1.31276e+00 -3.75715e-01
4
# CELL(abcABC): 1000.00000  1000.00000  1000.00000    90.00000    90.00000    90.00000  Step:          48  Bead:       0 positions{angstrom}  cell{angstrom}
       O -3.16259e+00  1.06553e+00  3.60966e-01
       H -2.83958e+00  2.11393e-01  6.60792e-01
       H -2.45713e+00  1.63687e+00  6.67525e-01
       H -3.88816e+00  1.30871e+00 -3.72420e-01
4
# CELL(abcABC): 1000.00000  1000.00000  1000.00000    90.00000    90.00000    90.00000  Step:          49  Bead:       0 positions{angstrom}  cell{angstrom}
       O -3.16276e+00  1.06659e+00  3.62495e-01
       H -2.83936e+00  2.11057e-01  6.46387e-01
       H -2.45379e+00  1.62397e+00  6.51455e-01
       H -3.88899e+00  1.30504e+00 -3.66216e-01
4
# CELL(abcABC): 1000.00000  1000.00000  1000.00000    90.00000    90.00000    90.00000  Step:          50  Bead:       0 positions{angstrom}  cell{angstrom}
       O -3.16284e+00  1.06769e+00  3.63911e-01
       H -2.84001e+00  2.09062e-01  6.32039e-01
       H -2.45080e+00  1.61283e+00  6.36616e-01
       H -3.89006e+00  1.30068e+00 -3.59499e-01
4
# CELL(abcABC): 1000.00000  1000.00000  1000.00000    90.00000    90.00000    90.00000  Step:          51  Bead:       0 positions{angstrom}  cell{angstrom}
       O -3.16307e+00  1.06870e+00  3.65092e-01
       H -2.84156e+00  2.04699e-01  6.17724e-01
       H -2.44576e+00  1.60537e+00  6.23167e-01
       H -3.88994e+00  1.29646e+00 -3.50488e-01
4
# CELL(abcABC): 1000.00000  1000.00000  1000.00000    90.00000    90.00000    90.00000  Step:          52  Bead:       0 positions{angstrom}  cell{angstrom}
       O -3.16344e+00  1.06969e+00  3.66124e-01
       H -2.84412e+00  1.98279e-01  6.03943e-01
       H -2.43808e+00  1.60118e+00  6.10287e-01
       H -3.88917e+00  1.29148e+00 -3.40201e-01
4
# CELL(abcABC): 1000.00000  1000.00000  1000.00000    90.00000    90.00000    90.00000  Step:          53  Bead:       0 positions{angstrom}  cell{angstrom}
       O -3.16398e+00  1.07049e+00  3.66865e-01
       H -2.84684e+00  1.90942e-01  5.89783e-01
       H -2.42778e+00  1.60226e+00  5.99730e-01
       H -3.88816e+00  1.28499e+00 -3.27247e-01
4
# CELL(abcABC): 1000.00000  1000.00000  1000.00000    90.00000    90.00000    90.00000  Step:          54  Bead:       0 positions{angstrom}  cell{angstrom}
       O -3.16459e+00  1.07123e+00  3.67101e-01
       H -2.85045e+00  1.81809e-01  5.77256e-01
       H -2.41570e+00  1.60732e+00  5.91432e-01
       H -3.88692e+00  1.27731e+00 -3.10168e-01
4
# CELL(abcABC): 1000.00000  1000.00000  1000.00000    90.00000    90.00000    90.00000  Step:          55  Bead:       0 positions{angstrom}  cell{angstrom}
       O -3.16525e+00  1.07185e+00  3.67086e-01
       H -2.85558e+00  1.72697e-01  5.66043e-01
       H -2.40250e+00  1.61475e+00  5.84968e-01
       H -3.88456e+00  1.26913e+00 -2.92259e-01
4
# CELL(abcABC): 1000.00000  1000.00000  1000.00000    90.00000    90.00000    90.00000  Step:          56  Bead:       0 positions{angstrom}  cell{angstrom}
       O -3.16587e+00  1.07232e+00  3.66888e-01
       H -2.85953e+00  1.64487e-01  5.55967e-01
       H -2.38989e+00  1.62301e+00  5.78205e-01
       H -3.88333e+00  1.26162e+00 -2.72282e-01
4
# CELL(abcABC): 1000.00000  1000.00000  1000.00000    90.00000    90.00000    90.00000  Step:          57  Bead:       0 positions{angstrom}  cell{angstrom}
       O -3.16629e+00  1.07265e+00  3.66498e-01
       H -2.86284e+00  1.58194e-01  5.46942e-01
       H -2.38007e+00  1.63078e+00  5.72909e-01
       H -3.88320e+00  1.25492e+00 -2.51768e-01
4
# CELL(abcABC): 1000.00000  1000.00000  1000.00000    90.00000    90.00000    90.00000  Step:          58  Bead:       0 positions{angstrom}  cell{angstrom}
       O -3.16652e+00  1.07294e+00  3.66003e-01
       H -2.86592e+00  1.52992e-01  5.38298e-01
       H -2.37254e+00  1.63764e+00  5.68525e-01
       H -3.88405e+00  1.24868e+00 -2.30886e-01
4
# CELL(abcABC): 1000.00000  1000.00000  1000.00000    90.00000    90.00000    90.00000  Step:          59  Bead:       0 positions{angstrom}  cell{angstrom}
       O -3.16649e+00  1.07311e+00  3.65320e-01
       H -2.86883e+00  1.50125e-01  5.30302e-01
       H -2.36801e+00  1.64341e+00  5.65895e-01
       H -3.88617e+00  1.24309e+00 -2.09411e-01
4
# CELL(abcABC): 1000.00000  1000.00000  1000.00000    90.00000    90.00000    90.00000  Step:          60  Bead:       0 positions{angstrom}  cell{angstrom}
       O -3.16616e+00  1.07327e+00  3.64639e-01
       H -2.87335e+00  1.49264e-01  5.22963e-01
       H -2.36639e+00  1.64649e+00  5.61778e-01
       H -3.88855e+00  1.23831e+00 -1.87146e-01
4
# CELL(abcABC): 1000.00000  1000.00000  1000.00000    90.00000    90.00000    90.00000  Step:          61  Bead:       0 positions{angstrom}  cell{angstrom}
       O -3.16558e+00  1.07343e+00  3.63964e-01
       H -2.87739e+00  1.50160e-01  5.15986e-01
       H -2.36721e+00  1.64702e+00  5.56425e-01
       H -3.89287e+00  1.23430e+00 -1.64100e-01
4
# CELL(abcABC): 1000.00000  1000.00000  1000.00000    90.00000    90.00000    90.00000  Step:          62  Bead:       0 positions{angstrom}  cell{angstrom}
       O -3.16460e+00  1.07365e+00  3.63413e-01
       H -2.88240e+00  1.52255e-01  5.09223e-01
       H -2.37272e+00  1.64471e+00  5.50621e-01
       H -3.89794e+00  1.23098e+00 -1.42785e-01
4
# CELL(abcABC): 1000.00000  1000.00000  1000.00000    90.00000    90.00000    90.00000  Step:          63  Bead:       0 positions{angstrom}  cell{angstrom}
       O -3.16327e+00  1.07374e+00  3.62701e-01
       H -2.88704e+00  1.56971e-01  5.03658e-01
       H -2.38143e+00  1.63961e+00  5.44806e-01
       H -3.90564e+00  1.22992e+00 -1.20101e-01
4
# CELL(abcABC): 1000.00000  1000.00000  1000.00000    90.00000    90.00000    90.00000  Step:          64  Bead:       0 positions{angstrom}  cell{angstrom}
       O -3.16176e+00  1.07380e+00  3.61929e-01
       H -2.89013e+00  1.62981e-01  4.99891e-01
       H -2.39165e+00  1.63290e+00  5.39371e-01
       H -3.91630e+00  1.22976e+00 -9.86484e-02
4
# CELL(abcABC): 1000.00000  1000.00000  1000.00000    90.00000    90.00000    90.00000  Step:          65  Bead:       0 positions{angstrom}  cell{angstrom}
       O -3.16014e+00  1.07375e+00  3.61139e-01
       H -2.89339e+00  1.69871e-01  4.95925e-01
       H -2.40172e+00  1.62700e+00  5.34381e-01
       H -3.92872e+00  1.22960e+00 -7.71609e-02
4
# CELL(abcABC): 1000.00000  1000.00000  1000.00000    90.00000    90.00000    90.00000  Step:          66  Bead:       0 positions{angstrom}  cell{angstrom}
       O -3.15853e+00  1.07354e+00  3.60190e-01
       H -2.89586e+00  1.78693e-01  4.93623e-01
       H -2.41072e+00  1.62023e+00  5.30579e-01
       H -3.94278e+00  1.23084e+00 -5.59909e-02
4
# CELL(abcABC): 1000.00000  1000.00000  1000.00000    90.00000    90.00000    90.00000  Step:          67  Bead:       0 positions{angstrom}  cell{angstrom}
       O -3.15697e+00  1.07336e+00  3.59138e-01
       H -2.89684e+00  1.84844e-01  4.91603e-01
       H -2.41682e+00  1.61529e+00  5.28444e-01
       H -3.96045e+00  1.23246e+00 -3.51409e-02
4
# CELL(abcABC): 1000.00000  1000.00000  1000.00000    90.00000    90.00000    90.00000  Step:          68  Bead:       0 positions{angstrom}  cell{angstrom}
       O -3.15566e+00  1.07310e+00  3.58110e-01
       H -2.89569e+00  1.87976e-01  4.90424e-01
       H -2.41905e+00  1.61305e+00  5.26056e-01
       H -3.98016e+00  1.23569e+00 -1.52424e-02
4
# CELL(abcABC): 1000.00000  1000.00000  1000.00000    90.00000    90.00000    90.00000  Step:          69  Bead:       0 positions{angstrom}  cell{angstrom}
       O -3.15457e+00  1.07293e+00  3.56768e-01
       H -2.89328e+00  1.86278e-01  4.91983e-01
       H -2.41784e+00  1.61398e+00  5.25946e-01
       H -4.00108e+00  1.23918e+00  4.60004e-03
4
# CELL(abcABC): 1000.00000  1000.00000  1000.00000    90.00000    90.00000    90.00000  Step:          70  Bead:       0 positions{angstrom}  cell{angstrom}
       O -3.15393e+00  1.07258e+00  3.55305e-01
       H -2.88893e+00  1.82096e-01  4.93598e-01
       H -2.41238e+00  1.61876e+00  5.26831e-01
       H -4.02103e+00  1.24406e+00  2.53348e-02
4
# CELL(abcABC): 1000.00000  1000.00000  1000.00000    90.00000    90.00000    90.00000  Step:          71  Bead:       0 positions{angstrom}  cell{angstrom}
       O -3.15350e+00  1.07228e+00  3.53808e-01
       H -2.88389e+00  1.74362e-01  4.94606e-01
       H -2.40417e+00  1.62548e+00  5.28270e-01
       H -4.04112e+00  1.24993e+00  4.66433e-02
4
# CELL(abcABC): 1000.00000  1000.00000  1000.00000    90.00000    90.00000    90.00000  Step:          72  Bead:       0 positions{angstrom}  cell{angstrom}
       O -3.15329e+00  1.07183e+00  3.52196e-01
       H -2.87743e+00  1.65527e-01  4.96414e-01
       H -2.39377e+00  1.63391e+00  5.31110e-01
       H -4.06128e+00  1.25752e+00  6.75866e-02
4
# CELL(abcABC): 1000.00000  1000.00000  1000.00000    90.00000    90.00000    90.00000  Step:          73  Bead:       0 positions{angstrom}  cell{angstrom}
       O -3.15314e+00  1.07135e+00  3.50628e-01
       H -2.87039e+00  1.56370e-01  4.98318e-01
       H -2.38289e+00  1.64312e+00  5.34242e-01
       H -4.08169e+00  1.26494e+00  8.74348e-02
4
# CELL(abcABC): 1000.00000  1000.00000  1000.00000    90.00000    90.00000    90.00000  Step:          74  Bead:       0 positions{angstrom}  cell{angstrom}
       O -3.15301e+00  1.07077e+00  3.49237e-01
       H -2.86266e+00  1.48296e-01  4.98902e-01
       H -2.37295e+00  1.65169e+00  5.36089e-01
       H -4.10129e+00  1.27366e+00  1.07091e-01
4
# CELL(abcABC): 1000.00000  1000.00000  1000.00000    90.00000    90.00000    90.00000  Step:          75  Bead:       0 positions{angstrom}  cell{angstrom}
       O -3.15266e+00  1.07018e+00  3.47902e-01
       H -2.85536e+00  1.41192e-01  4.98690e-01
       H -2.36574e+00  1.65806e+00  5.38244e-01
       H -4.12143e+00  1.28376e+00  1.26329e-01
4
# CELL(abcABC): 1000.00000  1000.00000  1000.00000    90.00000    90.00000    90.00000  Step:          76  Bead:       0 positions{angstrom}  cell{angstrom}
       O -3.15226e+00  1.06942e+00  3.46528e-01
       H -2.84742e+00  1.37058e-01  4.99142e-01
       H -2.36162e+00  1.66223e+00  5.39807e-01
       H -4.13979e+00  1.29584e+00  1.46121e-01
4
# CELL(abcABC): 1000.00000  1000.00000  1000.00000    90.00000    90.00000    90.00000  Step:          77  Bead:       0 positions{angstrom}  cell{angstrom}
       O -3.15163e+00  1.06858e+00  3.45222e-01
       H -2.83994e+00  1.37016e-01  4.99064e-01
       H -2.36138e+00  1.66406e+00  5.41134e-01
       H -4.15754e+00  1.30739e+00  1.65610e-01
4
# CELL(abcABC): 1000.00000  1000.00000  1000.00000    90.00000    90.00000    90.00000  Step:          78  Bead:       0 positions{angstrom}  cell{angstrom}
       O -3.15079e+00  1.06772e+00  3.44197e-01
       H -2.83412e+00  1.39527e-01  4.97441e-01
       H -2.36379e+00  1.66376e+00  5.41272e-01
       H -4.17425e+00  1.31883e+00  1.83364e-01
4
# CELL(abcABC): 1000.00000  1000.00000  1000.00000    90.00000    90.00000    90.00000  Step:          79  Bead:       0 positions{angstrom}  cell{angstrom}
       O -3.14990e+00  1.06696e+00  3.43266e-01
       H -2.82942e+00  1.45537e-01  4.96461e-01
       H -2.36811e+00  1.65990e+00  5.40242e-01
       H -4.18885e+00  1.32882e+00  2.00161e-01
4
# CELL(abcABC): 1000.00000  1000.00000  1000.00000    90.00000    90.00000    90.00000  Step:          80  Bead:       0 positions{angstrom}  cell{angstrom}
       O -3.14903e+00  1.06624e+00  3.42352e-01
       H -2.82473e+00  1.54216e-01  4.94898e-01
       H -2.37462e+00  1.65340e+00  5.39345e-01
       H -4.20083e+00  1.33808e+00  2.17129e-01
4
# CELL(abcABC): 1000.00000  1000.00000  1000.00000    90.00000    90.00000    90.00000  Step:          81  Bead:       0 positions{angstrom}  cell{angstrom}
       O -3.14823e+00  1.06543e+00  3.41617e-01
       H -2.81817e+00  1.65294e-01  4.92196e-01
       H -2.38349e+00  1.64703e+00  5.37842e-01
       H -4.21121e+00  1.34618e+00  2.32987e-01
4
# CELL(abcABC): 1000.00000  1000.00000  1000.00000    90.00000    90.00000    90.00000  Step:          82  Bead:       0 positions{angstrom}  cell{angstrom}
       O -3.14752e+00  1.06484e+00  3.40891e-01
       H -2.81088e+00  1.76207e-01  4.89846e-01
       H -2.39281e+00  1.63854e+00  5.35654e-01
       H -4.22047e+00  1.35317e+00  2.49051e-01
4
# CELL(abcABC): 1000.00000  1000.00000  1000.00000    90.00000    90.00000    90.00000  Step:          83  Bead:       0 positions{angstrom}  cell{angstrom}
       O -3.14702e+00  1.06426e+00  3.40253e-01
       H -2.80326e+00  1.86858e-01  4.87607e-01
       H -2.40182e+00  1.63060e+00  5.33076e-01
       H -4.22691e+00  1.35957e+00  2.64003e-01
4
# CELL(abcABC): 1000.00000  1000.00000  1000.00000    90.00000    90.00000    90.00000  Step:          84  Bead:       0 positions{angstrom}  cell{angstrom}
       O -3.14678e+00  1.06378e+00  3.39717e-01
       H -2.79408e+00  1.94992e-01  4.84118e-01
       H -2.41034e+00  1.62411e+00  5.30212e-01
       H -4.23140e+00  1.36561e+00  2.78863e-01
4
# CELL(abcABC): 1000.00000  1000.00000  1000.00000    90.00000    90.00000    90.00000  Step:          85  Bead:       0 positions{angstrom}  cell{angstrom}