4
# CELL(abcABC): 1000.00000  1000.00000  1000.00000    90.00000    90.00000    90.00000  Step:           0  Bead:       0 positions{angstrom}  cell{angstrom}
       O -3.15830e+00  1.06947e+00  3.57853e-01
       H -3.38150e+00  1.74670e-01  5.49900e-01
       H -3.09723e+00  1.20402e+00 -5.90861e-01
       H -2.77439e+00  1.71603e+00  1.04629e+00
4
# CELL(abcABC): 1000.00000  1000.00000  1000.00000    90.00000    90.00000    90.00000  Step:           1  Bead:       0 positions{angstrom}  cell{angstrom}
       O -3.15659e+00  1.06983e+00  3.57305e-01
       H -3.39176e+00  1.66043e-01  5.54569e-01
       H -3.09695e+00  1.20364e+00 -5.90267e-01
       H -2.79150e+00  1.71937e+00  1.04973e+00
4
# CELL(abcABC): 1000.00000  1000.00000  1000.00000    90.00000    90.00000    90.00000  Step:           2  Bead:       0 positions{angstrom}  cell{angstrom}
       O -3.15495e+00  1.07019e+00  3.56775e-01
       H -3.40292e+00  1.56489e-01  5.60192e-01
       H -3.09487e+00  1.20385e+00 -5.90927e-01
       H -2.80854e+00  1.72300e+00  1.05317e+00
4
# CELL(abcABC): 1000.00000  1000.00000  1000.00000    90.00000    90.00000    90.00000  Step:           3  Bead:       0 positions{angstrom}  cell{angstrom}
       O -3.15326e+00  1.07050e+00  3.56221e-01
       H -3.41387e+00  1.46336e-01  5.67623e-01
       H -3.09289e+00  1.20581e+00 -5.92120e-01
       H -2.82636e+00  1.72630e+00  1.05573e+00
4
# CELL(abcABC): 1000.00000  1000.00000  1000.00000    90.00000    90.00000    90.00000  Step:           4  Bead:       0 positions{angstrom}  cell{angstrom}
       O -3.15162e+00  1.07067e+00  3.55820e-01
       H -3.42492e+00  1.37161e-01  5.73533e-01
       H -3.09019e+00  1.20911e+00 -5.94733e-01
       H -2.84412e+00  1.72946e+00  1.05880e+00
4
# CELL(abcABC): 1000.00000  1000.00000  1000.00000    90.00000    90.00000    90.00000  Step:           5  Bead:       0 positions{angstrom}  cell{angstrom}
       O -3.14991e+00  1.07046e+00  3.55537e-01
       H -3.43622e+00  1.31451e-01  5.78327e-01
       H -3.08814e+00  1.21422e+00 -5.96891e-01
       H -2.86191e+00  1.73334e+00  1.06066e+00
4
# CELL(abcABC): 1000.00000  1000.00000  1000.00000    90.00000    90.00000    90.00000  Step:           6  Bead:       0 positions{angstrom}  cell{angstrom}
       O -3.14815e+00  1.07002e+00  3.55364e-01
       H -3.44663e+00  1.30268e-01  5.81007e-01
       H -3.08682e+00  1.21832e+00 -6.00201e-01
       H -2.88080e+00  1.73747e+00  1.06403e+00
4
# CELL(abcABC): 1000.00000  1000.00000  1000.00000    90.00000    90.00000    90.00000  Step:           7  Bead:       0 positions{angstrom}  cell{angstrom}
       O -3.14649e+00  1.06915e+00  3.55053e-01
       H -3.45459e+00  1.33689e-01  5.83624e-01
       H -3.08587e+00  1.22246e+00 -6.02355e-01
       H -2.90019e+00  1.74371e+00  1.06850e+00
4
# CELL(abcABC): 1000.00000  1000.00000  1000.00000    90.00000    90.00000    90.00000  Step:           8  Bead:       0 positions{angstrom}  cell{angstrom}
       O -3.14496e+00  1.06798e+00  3.54838e-01
       H -3.46048e+00  1.41593e-01  5.84155e-01
       H -3.08418e+00  1.22587e+00 -6.04427e-01
       H -2.92026e+00  1.75089e+00  1.07345e+00
4
# CELL(abcABC): 1000.00000  1000.00000  1000.00000    90.00000    90.00000    90.00000  Step:           9  Bead:       0 positions{angstrom}  cell{angstrom}
       O -3.14350e+00  1.06665e+00  3.54520e-01
       H -3.46531e+00  1.52514e-01  5.84434e-01
       H -3.08173e+00  1.22939e+00 -6.04831e-01
       H -2.94092e+00  1.75754e+00  1.07864e+00
4
# CELL(abcABC): 1000.00000  1000.00000  1000.00000    90.00000    90.00000    90.00000  Step:          10  Bead:       0 positions{angstrom}  cell{angstrom}
       O -3.14207e+00  1.06508e+00  3.54343e-01
       H -3.46914e+00  1.66340e-01  5.82678e-01
       H -3.07941e+00  1.23334e+00 -6.04758e-01
       H -2.96220e+00  1.76468e+00  1.08313e+00
4
# CELL(abcABC): 1000.00000  1000.00000  1000.00000    90.00000    90.00000    90.00000  Step:          11  Bead:       0 positions{angstrom}  cell{angstrom}
       O -3.14062e+00  1.06346e+00  3.54321e-01
       H -3.47214e+00  1.82504e-01  5.78563e-01
       H -3.07869e+00  1.23659e+00 -6.03800e-01
       H -2.98299e+00  1.77110e+00  1.08664e+00
4
# CELL(abcABC): 1000.00000  1000.00000  1000.00000    90.00000    90.00000    90.00000  Step:          12  Bead:       0 positions{angstrom}  cell{angstrom}
       O -3.13925e+00  1.06195e+00  3.54379e-01
       H -3.47376e+00  1.98423e-01  5.73438e-01
       H -3.07842e+00  1.23810e+00 -6.02565e-01
       H -3.00327e+00  1.77761e+00  1.08960e+00
4
# CELL(abcABC): 1000.00000  1000.00000  1000.00000    90.00000    90.00000    90.00000  Step:          13  Bead:       0 positions{angstrom}  cell{angstrom}
       O -3.13788e+00  1.06066e+00  3.54412e-01
       H -3.47591e+00  2.12966e-01  5.68363e-01
       H -3.07724e+00  1.23889e+00 -6.00130e-01
       H -3.02408e+00  1.78278e+00  1.09172e+00
4
# CELL(abcABC): 1000.00000  1000.00000  1000.00000    90.00000    90.00000    90.00000  Step:          14  Bead:       0 positions{angstrom}  cell{angstrom}
       O -3.13646e+00  1.05967e+00  3.54391e-01
       H -3.47801e+00  2.23430e-01  5.64041e-01
       H -3.07592e+00  1.23971e+00 -5.96755e-01
       H -3.04584e+00  1.78711e+00  1.09299e+00
4
# CELL(abcABC): 1000.00000  1000.00000  1000.00000    90.00000    90.00000    90.00000  Step:          15  Bead:       0 positions{angstrom}  cell{angstrom}
       O -3.13483e+00  1.05899e+00  3.54138e-01
       H -3.48401e+00  2.28212e-01  5.62630e-01
       H -3.07559e+00  1.24058e+00 -5.92569e-01
       H -3.06604e+00  1.79227e+00  1.09424e+00
4
# CELL(abcABC): 1000.00000  1000.00000  1000.00000    90.00000    90.00000    90.00000  Step:          16  Bead:       0 positions{angstrom}  cell{angstrom}
       O -3.13309e+00  1.05866e+00  3.53894e-01
       H -3.49114e+00  2.27176e-01  5.61752e-01
       H -3.07583e+00  1.24218e+00 -5.88210e-01
       H -3.08631e+00  1.79689e+00  1.09462e+00
4
# CELL(abcABC): 1000.00000  1000.00000  1000.00000    90.00000    90.00000    90.00000  Step:          17  Bead:       0 positions{angstrom}  cell{angstrom}
       O -3.13111e+00  1.05871e+00  3.53705e-01
       H -3.49954e+00  2.21788e-01  5.61821e-01
       H -3.07751e+00  1.24428e+00 -5.85268e-01
       H -3.10761e+00  1.79945e+00  1.09462e+00
4
# CELL(abcABC): 1000.00000  1000.00000  1000.00000    90.00000    90.00000    90.00000  Step:          18  Bead:       0 positions{angstrom}  cell{angstrom}
       O -3.12898e+00  1.05895e+00  3.53621e-01
       H -3.51045e+00  2.13734e-01  5.62452e-01
       H -3.07854e+00  1.24634e+00 -5.83287e-01
       H -3.12952e+00  1.80160e+00  1.09335e+00
4
# CELL(abcABC): 1000.00000  1000.00000  1000.00000    90.00000    90.00000    90.00000  Step:          19  Bead:       0 positions{angstrom}  cell{angstrom}
       O -3.12687e+00  1.05942e+00  3.53676e-01
       H -3.52169e+00  2.03770e-01  5.63467e-01
       H -3.08079e+00  1.24782e+00 -5.83159e-01
       H -3.14959e+00  1.80273e+00  1.09132e+00
4
# CELL(abcABC): 1000.00000  1000.00000  1000.00000    90.00000    90.00000    90.00000  Step:          20  Bead:       0 positions{angstrom}  cell{angstrom}
       O -3.12473e+00  1.05998e+00  3.53983e-01
       H -3.53276e+00  1.94251e-01  5.62523e-01
       H -3.08443e+00  1.24941e+00 -5.84050e-01
       H -3.16878e+00  1.80163e+00  1.08829e+00
4
# CELL(abcABC): 1000.00000  1000.00000  1000.00000    90.00000    90.00000    90.00000  Step:          21  Bead:       0 positions{angstrom}  cell{angstrom}
       O -3.12271e+00  1.06051e+00  3.54575e-01
       H -3.54343e+00  1.85733e-01  5.59426e-01
       H -3.08687e+00  1.25159e+00 -5.85150e-01
       H -3.18771e+00  1.79957e+00  1.08309e+00
4
# CELL(abcABC): 1000.00000  1000.00000  1000.00000    90.00000    90.00000    90.00000  Step:          22  Bead:       0 positions{angstrom}  cell{angstrom}
       O -3.12086e+00  1.06084e+00  3.55478e-01
       H -3.55380e+00  1.79054e-01  5.56013e-01
       H -3.08745e+00  1.25405e+00 -5.88819e-01
       H -3.20625e+00  1.79863e+00  1.07584e+00
4
# CELL(abcABC): 1000.00000  1000.00000  1000.00000    90.00000    90.00000    90.00000  Step:          23  Bead:       0 positions{angstrom}  cell{angstrom}
       O -3.11917e+00  1.06096e+00  3.56750e-01
       H -3.56211e+00  1.76557e-01  5.50610e-01
       H -3.08723e+00  1.25693e+00 -5.92502e-01
       H -3.22486e+00  1.79631e+00  1.06472e+00
4
# CELL(abcABC): 1000.00000  1000.00000  1000.00000    90.00000    90.00000    90.00000  Step:          24  Bead:       0 positions{angstrom}  cell{angstrom}
       O -3.11768e+00  1.06074e+00  3.58153e-01
       H -3.56769e+00  1.77171e-01  5.43683e-01
       H -3.08660e+00  1.26070e+00 -5.95709e-01
       H -3.24357e+00  1.79534e+00  1.05259e+00
4
# CELL(abcABC): 1000.00000  1000.00000  1000.00000    90.00000    90.00000    90.00000  Step:          25  Bead:       0 positions{angstrom}  cell{angstrom}
       O -3.11632e+00  1.06036e+00  3.59517e-01
       H -3.57111e+00  1.80963e-01  5.36218e-01
       H -3.08620e+00  1.26351e+00 -5.97891e-01
       H -3.26218e+00  1.79485e+00  1.04059e+00
4
# CELL(abcABC): 1000.00000  1000.00000  1000.00000    90.00000    90.00000    90.00000  Step:          26  Bead:       0 positions{angstrom}  cell{angstrom}
       O -3.11510e+00  1.05981e+00  3.60839e-01
       H -3.57243e+00  1.87985e-01  5.26895e-01
       H -3.08532e+00  1.26557e+00 -5.98964e-01
       H -3.28107e+00  1.79445e+00  1.02999e+00
4
# CELL(abcABC): 1000.00000  1000.00000  1000.00000    90.00000    90.00000    90.00000  Step:          27  Bead:       0 positions{angstrom}  cell{angstrom}
       O -3.11412e+00  1.05904e+00  3.62115e-01
       H -3.57211e+00  1.99180e-01  5.16010e-01
       H -3.08418e+00  1.26625e+00 -5.98748e-01
       H -3.29806e+00  1.79486e+00  1.02041e+00
4
# CELL(abcABC): 1000.00000  1000.00000  1000.00000    90.00000    90.00000    90.00000  Step:          28  Bead:       0 positions{angstrom}  cell{angstrom}
       O -3.11320e+00  1.05812e+00  3.63210e-01
       H -3.57157e+00  2.10910e-01  5.04427e-01
       H -3.08216e+00  1.26648e+00 -5.96509e-01
       H -3.31528e+00  1.79743e+00  1.01238e+00
4
# CELL(abcABC): 1000.00000  1000.00000  1000.00000    90.00000    90.00000    90.00000  Step:          29  Bead:       0 positions{angstrom}  cell{angstrom}
       O -3.11238e+00  1.05710e+00  3.64180e-01
       H -3.56972e+00  2.23686e-01  4.91216e-01
       H -3.08071e+00  1.26615e+00 -5.92611e-01
       H -3.33158e+00  1.80121e+00  1.00629e+00
4
# CELL(abcABC): 1000.00000  1000.00000  1000.00000    90.00000    90.00000    90.00000  Step:          30  Bead:       0 positions{angstrom}  cell{angstrom}
       O -3.11160e+00  1.05600e+00  3.64974e-01
       H -3.56769e+00  2.36553e-01  4.78938e-01
       H -3.07908e+00  1.26541e+00 -5.86949e-01
       H -3.34759e+00  1.80656e+00  1.00031e+00
4
# CELL(abcABC): 1000.00000  1000.00000  1000.00000    90.00000    90.00000    90.00000  Step:          31  Bead:       0 positions{angstrom}  cell{angstrom}
       O -3.11095e+00  1.05492e+00  3.65704e-01
       H -3.56525e+00  2.46888e-01  4.67403e-01
       H -3.07636e+00  1.26561e+00 -5.81130e-01
       H -3.36310e+00  1.81313e+00  9.94433e-01
4
# CELL(abcABC): 1000.00000  1000.00000  1000.00000    90.00000    90.00000    90.00000  Step:          32  Bead:       0 positions{angstrom}  cell{angstrom}
       O -3.11023e+00  1.05419e+00  3.66161e-01
       H -3.56576e+00  2.50992e-01  4.57341e-01
       H -3.07256e+00  1.26710e+00 -5.73883e-01
       H -3.37791e+00  1.81924e+00  9.90001e-01
4
# CELL(abcABC): 1000.00000  1000.00000  1000.00000    90.00000    90.00000    90.00000  Step:          33  Bead:       0 positions{angstrom}  cell{angstrom}
       O -3.10942e+00  1.05388e+00  3.66467e-01
       H -3.56927e+00  2.49305e-01  4.49476e-01
       H -3.06778e+00  1.26783e+00 -5.66680e-01
       H -3.39191e+00  1.82498e+00  9.85797e-01
4
# CELL(abcABC): 1000.00000  1000.00000  1000.00000    90.00000    90.00000    90.00000  Step:          34  Bead:       0 positions{angstrom}  cell{angstrom}
       O -3.10845e+00  1.05392e+00  3.66899e-01
       H -3.57461e+00  2.42606e-01  4.42351e-01
       H -3.06413e+00  1.26849e+00 -5.60497e-01
       H -3.40570e+00  1.83041e+00  9.79888e-01
4
# CELL(abcABC): 1000.00000  1000.00000  1000.00000    90.00000    90.00000    90.00000  Step:          35  Bead:       0 positions{angstrom}  cell{angstrom}
       O -3.10752e+00  1.05417e+00  3.67428e-01
       H -3.57987e+00  2.32062e-01  4.35218e-01
       H -3.06097e+00  1.27067e+00 -5.55727e-01
       H -3.41838e+00  1.83482e+00  9.73847e-01
4
# CELL(abcABC): 1000.00000  1000.00000  1000.00000    90.00000    90.00000    90.00000  Step:          36  Bead:       0 positions{angstrom}  cell{angstrom}
       O -3.10669e+00  1.05449e+00  3.68124e-01
       H -3.58565e+00  2.19234e-01  4.28106e-01
       H -3.05690e+00  1.27486e+00 -5.54405e-01
       H -3.42981e+00  1.83835e+00  9.68595e-01
4
# CELL(abcABC): 1000.00000  1000.00000  1000.00000    90.00000    90.00000    90.00000  Step:          37  Bead:       0 positions{angstrom}  cell{angstrom}
       O -3.10606e+00  1.05494e+00  3.68866e-01
       H -3.59063e+00  2.06558e-01  4.23109e-01
       H -3.05150e+00  1.27914e+00 -5.56166e-01
       H -3.44023e+00  1.83971e+00  9.63566e-01
4
# CELL(abcABC): 1000.00000  1000.00000  1000.00000    90.00000    90.00000    90.00000  Step:          38  Bead:       0 positions{angstrom}  cell{angstrom}
       O -3.10547e+00  1.05537e+00  3.69906e-01
       H -3.59559e+00  1.94463e-01  4.17141e-01
       H -3.04513e+00  1.28282e+00 -5.60347e-01
       H -3.45098e+00  1.84131e+00  9.57215e-01
4
# CELL(abcABC): 1000.00000  1000.00000  1000.00000    90.00000    90.00000    90.00000  Step:          39  Bead:       0 positions{angstrom}  cell{angstrom}
       O -3.10529e+00  1.05585e+00  3.70922e-01
       H -3.59809e+00  1.83850e-01  4.11826e-01
       H -3.03739e+00  1.28556e+00 -5.64969e-01
       H -3.45904e+00  1.84157e+00  9.51019e-01
4
# CELL(abcABC): 1000.00000  1000.00000  1000.00000    90.00000    90.00000    90.00000  Step:          40  Bead:       0 positions{angstrom}  cell{angstrom}
       O -3.10544e+00  1.05616e+00  3.71770e-01
       H -3.59833e+00  1.76413e-01  4.07604e-01
       H -3.02838e+00  1.28841e+00 -5.68445e-01
       H -3.46553e+00  1.84118e+00  9.45258e-01
4
# CELL(abcABC): 1000.00000  1000.00000  1000.00000    90.00000    90.00000    90.00000  Step:          41  Bead:       0 positions{angstrom}  cell{angstrom}
       O -3.10587e+00  1.05629e+00  3.72523e-01
       H -3.59634e+00  1.73308e-01  4.03097e-01
       H -3.01777e+00  1.29139e+00 -5.71363e-01
       H -3.47128e+00  1.83916e+00  9.40738e-01
4
# CELL(abcABC): 1000.00000  1000.00000  1000.00000    90.00000    90.00000    90.00000  Step:          42  Bead:       0 positions{angstrom}  cell{angstrom}
       O -3.10670e+00  1.05641e+00  3.73231e-01
       H -3.59035e+00  1.72076e-01  3.98420e-01
       H -3.00593e+00  1.29397e+00 -5.73001e-01
       H -3.47597e+00  1.83598e+00  9.35810e-01
4
# CELL(abcABC): 1000.00000  1000.00000  1000.00000    90.00000    90.00000    90.00000  Step:          43  Bead:       0 positions{angstrom}  cell{angstrom}
       O -3.10777e+00  1.05632e+00  3.73813e-01
       H -3.58220e+00  1.75196e-01  3.93583e-01
       H -2.99307e+00  1.29729e+00 -5.72972e-01
       H -3.47991e+00  1.83090e+00  9.31379e-01
4
# CELL(abcABC): 1000.00000  1000.00000  1000.00000    90.00000    90.00000    90.00000  Step:          44  Bead:       0 positions{angstrom}  cell{angstrom}
       O -3.10904e+00  1.05617e+00  3.74220e-01
       H -3.57178e+00  1.80556e-01  3.88351e-01
       H -2.97930e+00  1.29950e+00 -5.71613e-01
       H -3.48391e+00  1.82575e+00  9.28788e-01
4
# CELL(abcABC): 1000.00000  1000.00000  1000.00000    90.00000    90.00000    90.00000  Step:          45  Bead:       0 positions{angstrom}  cell{angstrom}
       O -3.11039e+00  1.05600e+00  3.74490e-01
       H -3.56040e+00  1.88011e-01  3.82731e-01
       H -2.96410e+00  1.30032e+00 -5.69059e-01
       H -3.48913e+00  1.82024e+00  9.27575e-01
4
# CELL(abcABC): 1000.00000  1000.00000  1000.00000    90.00000    90.00000    90.00000  Step:          46  Bead:       0 positions{angstrom}  cell{angstrom}
       O -3.11189e+00  1.05587e+00  3.74584e-01
       H -3.54823e+00  1.96792e-01  3.76994e-01
       H -2.94835e+00  1.29952e+00 -5.64919e-01
       H -3.49322e+00  1.81432e+00  9.27678e-01
4
# CELL(abcABC): 1000.00000  1000.00000  1000.00000    90.00000    90.00000    90.00000  Step:          47  Bead:       0 positions{angstrom}  cell{angstrom}
       O -3.11342e+00  1.05573e+00  3.74595e-01
       H -3.53594e+00  2.04475e-01  3.71870e-01
       H -2.93184e+00  1.29823e+00 -5.59724e-01
       H -3.49776e+00  1.81013e+00  9.27425e-01
4
# CELL(abcABC): 1000.00000  1000.00000  1000.00000    90.00000    90.00000    90.00000  Step:          48  Bead:       0 positions{angstrom}  cell{angstrom}
       O -3.11492e+00  1.05586e+00  3.74400e-01
       H -3.52383e+00  2.08702e-01  3.67429e-01
       H -2.91477e+00  1.29691e+00 -5.53583e-01
       H -3.50309e+00  1.80513e+00  9.28827e-01
4
# CELL(abcABC): 1000.00000  1000.00000  1000.00000    90.00000    90.00000    90.00000  Step:          49  Bead:       0 positions{angstrom}  cell{angstrom}
       O -3.11641e+00  1.05624e+00  3.73912e-01
       H -3.51289e+00  2.08754e-01  3.63947e-01
       H -2.89598e+00  1.29481e+00 -5.45956e-01
       H -3.50912e+00  1.80118e+00  9.32434e-01
4
# CELL(abcABC): 1000.00000  1000.00000  1000.00000    90.00000    90.00000    90.00000  Step:          50  Bead:       0 positions{angstrom}  cell{angstrom}
       O -3.11766e+00  1.05696e+00  3.73376e-01
       H -3.50384e+00  2.04519e-01  3.60528e-01
       H -2.87842e+00  1.29164e+00 -5.37326e-01
       H -3.51597e+00  1.79706e+00  9.35725e-01
4
# CELL(abcABC): 1000.00000  1000.00000  1000.00000    90.00000    90.00000    90.00000  Step:          51  Bead:       0 positions{angstrom}  cell{angstrom}
       O -3.11884e+00  1.05794e+00  3.72752e-01
       H -3.49670e+00  1.95512e-01  3.57001e-01
       H -2.86067e+00  1.28867e+00 -5.28529e-01
       H -3.52216e+00  1.79353e+00  9.40367e-01
4
# CELL(abcABC): 1000.00000  1000.00000  1000.00000    90.00000    90.00000    90.00000  Step:          52  Bead:       0 positions{angstrom}  cell{angstrom}
       O -3.11994e+00  1.05921e+00  3.72181e-01
       H -3.49118e+00  1.82763e-01  3.53804e-01
       H -2.84268e+00  1.28524e+00 -5.21158e-01
       H -3.52816e+00  1.78955e+00  9.45244e-01
4
# CELL(abcABC): 1000.00000  1000.00000  1000.00000    90.00000    90.00000    90.00000  Step:          53  Bead:       0 positions{angstrom}  cell{angstrom}
       O -3.12104e+00  1.06055e+00  3.71552e-01
       H -3.48576e+00  1.68429e-01  3.50029e-01
       H -2.82449e+00  1.28357e+00 -5.13835e-01
       H -3.53427e+00  1.78427e+00  9.51687e-01
4
# CELL(abcABC): 1000.00000  1000.00000  1000.00000    90.00000    90.00000    90.00000  Step:          54  Bead:       0 positions{angstrom}  cell{angstrom}
       O -3.12214e+00  1.06198e+00  3.70650e-01
       H -3.48050e+00  1.52648e-01  3.47711e-01
       H -2.80621e+00  1.28314e+00 -5.06657e-01
       H -3.54034e+00  1.77791e+00  9.61150e-01
4
# CELL(abcABC): 1000.00000  1000.00000  1000.00000    90.00000    90.00000    90.00000  Step:          55  Bead:       0 positions{angstrom}  cell{angstrom}
       O -3.12335e+00  1.06331e+00  3.69713e-01
       H -3.47532e+00  1.38064e-01  3.46579e-01
       H -2.78732e+00  1.28346e+00 -4.99871e-01
       H -3.54522e+00  1.77100e+00  9.70359e-01
4
# CELL(abcABC): 1000.00000  1000.00000  1000.00000    90.00000    90.00000    90.00000  Step:          56  Bead:       0 positions{angstrom}  cell{angstrom}
       O -3.12473e+00  1.06441e+00  3.68780e-01
       H -3.46693e+00  1.26170e-01  3.46469e-01
       H -2.76814e+00  1.28424e+00 -4.95246e-01
       H -3.55086e+00  1.76462e+00  9.80661e-01
4
# CELL(abcABC): 1000.00000  1000.00000  1000.00000    90.00000    90.00000    90.00000  Step:          57  Bead:       0 positions{angstrom}  cell{angstrom}
       O -3.12623e+00  1.06523e+00  3.67793e-01
       H -3.45557e+00  1.18191e-01  3.47300e-01
       H -2.74973e+00  1.28521e+00 -4.90372e-01
       H -3.55687e+00  1.75869e+00  9.90612e-01
4
# CELL(abcABC): 1000.00000  1000.00000  1000.00000    90.00000    90.00000    90.00000  Step:          58  Bead:       0 positions{angstrom}  cell{angstrom}
       O -3.12794e+00  1.06582e+00  3.66803e-01
       H -3.44157e+00  1.13207e-01  3.48378e-01
       H -2.73077e+00  1.28674e+00 -4.85248e-01
       H -3.56273e+00  1.75270e+00  1.00013e+00
4
# CELL(abcABC): 1000.00000  1000.00000  1000.00000    90.00000    90.00000    90.00000  Step:          59  Bead:       0 positions{angstrom}  cell{angstrom}
       O -3.12984e+00  1.06611e+00  3.65684e-01
       H -3.42505e+00  1.12128e-01  3.49940e-01
       H -2.71144e+00  1.28924e+00 -4.78474e-01
       H -3.56834e+00  1.74662e+00  1.00956e+00
4
# CELL(abcABC): 1000.00000  1000.00000  1000.00000    90.00000    90.00000    90.00000  Step:          60  Bead:       0 positions{angstrom}  cell{angstrom}
       O -3.13193e+00  1.06624e+00  3.64597e-01
       H -3.40812e+00  1.14089e-01  3.51930e-01
       H -2.69133e+00  1.29149e+00 -4.72856e-01
       H -3.57229e+00  1.74041e+00  1.01920e+00
4
# CELL(abcABC): 1000.00000  1000.00000  1000.00000    90.00000    90.00000    90.00000  Step:          61  Bead:       0 positions{angstrom}  cell{angstrom}
       O -3.13423e+00  1.06625e+00  3.63510e-01
       H -3.38912e+00  1.18233e-01  3.53966e-01
       H -2.67020e+00  1.29369e+00 -4.67599e-01
       H -3.57589e+00  1.73386e+00  1.02917e+00
4
# CELL(abcABC): 1000.00000  1000.00000  1000.00000    90.00000    90.00000    90.00000  Step:          62  Bead:       0 positions{angstrom}  cell{angstrom}
       O -3.13654e+00  1.06628e+00  3.62501e-01
       H -3.37005e+00  1.23238e-01  3.55820e-01
       H -2.65084e+00  1.29535e+00 -4.61324e-01
       H -3.57758e+00  1.72672e+00  1.03705e+00
4
# CELL(abcABC): 1000.00000  1000.00000  1000.00000    90.00000    90.00000    90.00000  Step:          63  Bead:       0 positions{angstrom}  cell{angstrom}
       O -3.13884e+00  1.06622e+00  3.61262e-01
       H -3.35020e+00  1.29788e-01  3.58403e-01
       H -2.63277e+00  1.29603e+00 -4.53263e-01
       H -3.57906e+00  1.72048e+00  1.04608e+00
4
# CELL(abcABC): 1000.00000  1000.00000  1000.00000    90.00000    90.00000    90.00000  Step:          64  Bead:       0 positions{angstrom}  cell{angstrom}
       O -3.14116e+00  1.06626e+00  3.59895e-01
       H -3.32908e+00  1.35850e-01  3.62240e-01
       H -2.61560e+00  1.29616e+00 -4.42989e-01
       H -3.58048e+00  1.71367e+00  1.05366e+00
4
# CELL(abcABC): 1000.00000  1000.00000  1000.00000    90.00000    90.00000    90.00000  Step:          65  Bead:       0 positions{angstrom}  cell{angstrom}
       O -3.14345e+00  1.06643e+00  3.58463e-01
       H -3.30906e+00  1.40412e-01  3.65284e-01
       H -2.59914e+00  1.29725e+00 -4.30651e-01
       H -3.58064e+00  1.70538e+00  1.06101e+00
4
# CELL(abcABC): 1000.00000  1000.00000  1000.00000    90.00000    90.00000    90.00000  Step:          66  Bead:       0 positions{angstrom}  cell{angstrom}
       O -3.14569e+00  1.06674e+00  3.56853e-01
       H -3.28976e+00  1.44348e-01  3.69333e-01
       H -2.58392e+00  1.29668e+00 -4.15863e-01
       H -3.57953e+00  1.69703e+00  1.06774e+00
4
# CELL(abcABC): 1000.00000  1000.00000  1000.00000    90.00000    90.00000    90.00000  Step:          67  Bead:       0 positions{angstrom}  cell{angstrom}
       O -3.14780e+00  1.06742e+00  3.55166e-01
       H -3.27103e+00  1.43323e-01  3.72938e-01
       H -2.56940e+00  1.29624e+00 -3.98736e-01
       H -3.57934e+00  1.68770e+00  1.07378e+00
4
# CELL(abcABC): 1000.00000  1000.00000  1000.00000    90.00000    90.00000    90.00000  Step:          68  Bead:       0 positions{angstrom}  cell{angstrom}
       O -3.14987e+00  1.06833e+00  3.53577e-01
       H -3.25257e+00  1.37793e-01  3.76640e-01
       H -2.55544e+00  1.29622e+00 -3.81876e-01
       H -3.57887e+00  1.67880e+00  1.07844e+00
4
# CELL(abcABC): 1000.00000  1000.00000  1000.00000    90.00000    90.00000    90.00000  Step:          69  Bead:       0 positions{angstrom}  cell{angstrom}
       O -3.15183e+00  1.06956e+00  3.51786e-01
       H -3.23528e+00  1.27087e-01  3.82376e-01
       H -2.54273e+00  1.29695e+00 -3.63261e-01
       H -3.57775e+00  1.66918e+00  1.08252e+00
4
# CELL(abcABC): 1000.00000  1000.00000  1000.00000    90.00000    90.00000    90.00000  Step:          70  Bead:       0 positions{angstrom}  cell{angstrom}
       O -3.15393e+00  1.07075e+00  3.50008e-01
       H -3.21826e+00  1.14751e-01  3.87550e-01
       H -2.52989e+00  1.29946e+00 -3.44691e-01
       H -3.57428e+00  1.66022e+00  1.08699e+00
4
# CELL(abcABC): 1000.00000  1000.00000  1000.00000    90.00000    90.00000    90.00000  Step:          71  Bead:       0 positions{angstrom}  cell{angstrom}
       O -3.15600e+00  1.07196e+00  3.48336e-01
       H -3.20248e+00  1.00694e-01  3.91622e-01
       H -2.51716e+00  1.30274e+00 -3.26824e-01
       H -3.57006e+00  1.65176e+00  1.09160e+00
4
# CELL(abcABC): 1000.00000  1000.00000  1000.00000    90.00000    90.00000    90.00000  Step:          72  Bead:       0 positions{angstrom}  cell{angstrom}
       O -3.15813e+00  1.07288e+00  3.46670e-01
       H -3.18686e+00  8.80050e-02  3.96164e-01
       H -2.50355e+00  1.30771e+00 -3.08822e-01
       H -3.56542e+00  1.64481e+00  1.09550e+00
4
# CELL(abcABC): 1000.00000  1000.00000  1000.00000    90.00000    90.00000    90.00000  Step:          73  Bead:       0 positions{angstrom}  cell{angstrom}
       O -3.16026e+00  1.07354e+00  3.45138e-01
       H -3.17189e+00  7.76887e-02  4.00650e-01
       H -2.48911e+00  1.31471e+00 -2.91575e-01
       H -3.56099e+00  1.63765e+00  1.09808e+00
4
# CELL(abcABC): 1000.00000  1000.00000  1000.00000    90.00000    90.00000    90.00000  Step:          74  Bead:       0 positions{angstrom}  cell{angstrom}
       O -3.16245e+00  1.07377e+00  3.43824e-01
       H -3.15719e+00  7.10432e-02  4.03831e-01
       H -2.47390e+00  1.32341e+00 -2.76223e-01
       H -3.55616e+00  1.63201e+00  1.10041e+00
4
# CELL(abcABC): 1000.00000  1000.00000  1000.00000    90.00000    90.00000    90.00000  Step:          75  Bead:       0 positions{angstrom}  cell{angstrom}
       O -3.16447e+00  1.07362e+00  3.42545e-01
       H -3.14364e+00  6.76121e-02  4.06394e-01
       H -2.45892e+00  1.33302e+00 -2.60526e-01
       H -3.55268e+00  1.62816e+00  1.10245e+00
4
# CELL(abcABC): 1000.00000  1000.00000  1000.00000    90.00000    90.00000    90.00000  Step:          76  Bead:       0 positions{angstrom}  cell{angstrom}
       O -3.16651e+00  1.07294e+00  3.41154e-01
       H -3.13004e+00  6.88955e-02  4.09951e-01
       H -2.44417e+00  1.34399e+00 -2.44820e-01
       H -3.54865e+00  1.62682e+00  1.10527e+00
4
# CELL(abcABC): 1000.00000  1000.00000  1000.00000    90.00000    90.00000    90.00000  Step:          77  Bead:       0 positions{angstrom}  cell{angstrom}
       O -3.16836e+00  1.07184e+00  3.39714e-01
       H -3.11739e+00  7.53630e-02  4.13435e-01
       H -2.43053e+00  1.35626e+00 -2.28229e-01
       H -3.54557e+00  1.62551e+00  1.10805e+00
4
# CELL(abcABC): 1000.00000  1000.00000  1000.00000    90.00000    90.00000    90.00000  Step:          78  Bead:       0 positions{angstrom}  cell{angstrom}
       O -3.17001e+00  1.07045e+00  3.38412e-01
       H -3.10682e+00  8.47254e-02  4.15925e-01
       H -2.41717e+00  1.36986e+00 -2.11342e-01
       H -3.54330e+00  1.62466e+00  1.10934e+00
4
# CELL(abcABC): 1000.00000  1000.00000  1000.00000    90.00000    90.00000    90.00000  Step:          79  Bead:       0 positions{angstrom}  cell{angstrom}
       O -3.17153e+00  1.06895e+00  3.37037e-01
       H -3.09786e+00  9.71200e-02  4.19666e-01
       H -2.40406e+00  1.38289e+00 -1.93844e-01
       H -3.54112e+00  1.62293e+00  1.10993e+00
4
# CELL(abcABC): 1000.00000  1000.00000  1000.00000    90.00000    90.00000    90.00000  Step:          80  Bead:       0 positions{angstrom}  cell{angstrom}
       O -3.17294e+00  1.06741e+00  3.35498e-01
       H -3.08941e+00  1.10861e-01  4.23475e-01
       H -2.39250e+00  1.39555e+00 -1.74270e-01
       H -3.53877e+00  1.62106e+00  1.11097e+00
4
# CELL(abcABC): 1000.00000  1000.00000  1000.00000    90.00000    90.00000    90.00000  Step:          81  Bead:       0 positions{angstrom}  cell{angstrom}
       O -3.17419e+00  1.06579e+00  3.33957e-01
       H -3.07964e+00  1.24829e-01  4.26833e-01
       H -2.38372e+00  1.40965e+00 -1.53410e-01
       H -3.53754e+00  1.61859e+00  1.11122e+00
4
# CELL(abcABC): 1000.00000  1000.00000  1000.00000    90.00000    90.00000    90.00000  Step:          82  Bead:       0 positions{angstrom}  cell{angstrom}
       O -3.17520e+00  1.06453e+00  3.32253e-01
       H -3.06976e+00  1.35716e-01  4.31266e-01
       H -2.37696e+00  1.42191e+00 -1.31580e-01
       H -3.53813e+00  1.61557e+00  1.11201e+00
4
# CELL(abcABC): 1000.00000  1000.00000  1000.00000    90.00000    90.00000    90.00000  Step:          83  Bead:       0 positions{angstrom}  cell{angstrom}
       O -3.17602e+00  1.06351e+00  3.30491e-01
       H -3.06021e+00  1.43048e-01  4.36564e-01
       H -2.37257e+00  1.43380e+00 -1.08910e-01
       H -3.53904e+00  1.61247e+00  1.11200e+00
4
# CELL(abcABC): 1000.00000  1000.00000  1000.00000    90.00000    90.00000    90.00000  Step:          84  Bead:       0 positions{angstrom}  cell{angstrom}
       O -3.17661e+00  1.06288e+00  3.28721e-01
       H -3.04979e+00  1.44737e-01  4.41348e-01
       H -2.37138e+00  1.44510e+00 -8.58362e-02
       H -3.54129e+00  1.60954e+00  1.11224e+00
4
# CELL(abcABC): 1000.00000  1000.00000  1000.00000    90.00000    90.00000    90.00000  Step:          85  Bead:       0 positions{angstrom}  cell{angstrom}