4
# CELL(abcABC): 1000.00000  1000.00000  1000.00000    90.00000    90.00000    90.00000  Step:           0  Bead:       0 positions{angstrom}  cell{angstrom}
       O -3.15250e+00  1.05674e+00  3.74095e-01
       H -3.36092e+00  1.51673e+00 -4.35444e-01
       H -3.20828e+00  1.34335e-01  1.23075e-01
       H -2.77590e+00  1.64529e+00  1.05989e+00
4
# CELL(abcABC): 1000.00000  1000.00000  1000.00000    90.00000    90.00000    90.00000  Step:           1  Bead:       0 positions{angstrom}  cell{angstrom}
       O -3.15079e+00  1.05705e+00  3.73411e-01
       H -3.37091e+00  1.50919e+00 -4.30462e-01
       H -3.20820e+00  1.34024e-01  1.24818e-01
       H -2.79317e+00  1.64826e+00  1.06402e+00
4
# CELL(abcABC): 1000.00000  1000.00000  1000.00000    90.00000    90.00000    90.00000  Step:           2  Bead:       0 positions{angstrom}  cell{angstrom}
       O -3.14910e+00  1.05734e+00  3.72489e-01
       H -3.38178e+00  1.50164e+00 -4.24211e-01
       H -3.20661e+00  1.34426e-01  1.27790e-01
       H -2.81067e+00  1.65069e+00  1.06943e+00
4
# CELL(abcABC): 1000.00000  1000.00000  1000.00000    90.00000    90.00000    90.00000  Step:           3  Bead:       0 positions{angstrom}  cell{angstrom}
       O -3.14731e+00  1.05767e+00  3.71326e-01
       H -3.39299e+00  1.49321e+00 -4.16262e-01
       H -3.20533e+00  1.36582e-01  1.32637e-01
       H -2.82918e+00  1.65187e+00  1.07510e+00
4
# CELL(abcABC): 1000.00000  1000.00000  1000.00000    90.00000    90.00000    90.00000  Step:           4  Bead:       0 positions{angstrom}  cell{angstrom}
       O -3.14547e+00  1.05801e+00  3.70166e-01
       H -3.40557e+00  1.48449e+00 -4.10597e-01
       H -3.20339e+00  1.39735e-01  1.38214e-01
       H -2.84780e+00  1.65190e+00  1.08226e+00
4
# CELL(abcABC): 1000.00000  1000.00000  1000.00000    90.00000    90.00000    90.00000  Step:           5  Bead:       0 positions{angstrom}  cell{angstrom}
       O -3.14344e+00  1.05824e+00  3.69044e-01
       H -3.42026e+00  1.47713e+00 -4.07243e-01
       H -3.20206e+00  1.43882e-01  1.45873e-01
       H -2.86655e+00  1.65155e+00  1.08906e+00
4
# CELL(abcABC): 1000.00000  1000.00000  1000.00000    90.00000    90.00000    90.00000  Step:           6  Bead:       0 positions{angstrom}  cell{angstrom}
       O -3.14123e+00  1.05857e+00  3.68001e-01
       H -3.43629e+00  1.47150e+00 -4.07243e-01
       H -3.20127e+00  1.45509e-01  1.53434e-01
       H -2.88638e+00  1.65029e+00  1.09806e+00
4
# CELL(abcABC): 1000.00000  1000.00000  1000.00000    90.00000    90.00000    90.00000  Step:           7  Bead:       0 positions{angstrom}  cell{angstrom}
       O -3.13901e+00  1.05887e+00  3.66806e-01
       H -3.45209e+00  1.46716e+00 -4.08119e-01
       H -3.20052e+00  1.45366e-01  1.62574e-01
       H -2.90655e+00  1.65000e+00  1.10876e+00
4
# CELL(abcABC): 1000.00000  1000.00000  1000.00000    90.00000    90.00000    90.00000  Step:           8  Bead:       0 positions{angstrom}  cell{angstrom}
       O -3.13686e+00  1.05928e+00  3.65688e-01
       H -3.46777e+00  1.46379e+00 -4.11381e-01
       H -3.19853e+00  1.42583e-01  1.71752e-01
       H -2.92706e+00  1.64962e+00  1.12060e+00
4
# CELL(abcABC): 1000.00000  1000.00000  1000.00000    90.00000    90.00000    90.00000  Step:           9  Bead:       0 positions{angstrom}  cell{angstrom}
       O -3.13477e+00  1.05990e+00  3.64421e-01
       H -3.48377e+00  1.46000e+00 -4.14498e-01
       H -3.19513e+00  1.38307e-01  1.82150e-01
       H -2.94762e+00  1.64789e+00  1.13342e+00
4
# CELL(abcABC): 1000.00000  1000.00000  1000.00000    90.00000    90.00000    90.00000  Step:          10  Bead:       0 positions{angstrom}  cell{angstrom}
       O -3.13276e+00  1.06057e+00  3.63221e-01
       H -3.49942e+00  1.45614e+00 -4.18683e-01
       H -3.19105e+00  1.33402e-01  1.92383e-01
       H -2.96805e+00  1.64607e+00  1.14642e+00
4
# CELL(abcABC): 1000.00000  1000.00000  1000.00000    90.00000    90.00000    90.00000  Step:          11  Bead:       0 positions{angstrom}  cell{angstrom}
       O -3.13086e+00  1.06136e+00  3.62072e-01
       H -3.51397e+00  1.45246e+00 -4.23738e-01
       H -3.18762e+00  1.27372e-01  2.02697e-01
       H -2.98709e+00  1.64321e+00  1.15941e+00
4
# CELL(abcABC): 1000.00000  1000.00000  1000.00000    90.00000    90.00000    90.00000  Step:          12  Bead:       0 positions{angstrom}  cell{angstrom}
       O -3.12927e+00  1.06231e+00  3.60871e-01
       H -3.52570e+00  1.44766e+00 -4.27929e-01
       H -3.18356e+00  1.19957e-01  2.12439e-01
       H -3.00456e+00  1.64037e+00  1.17293e+00
4
# CELL(abcABC): 1000.00000  1000.00000  1000.00000    90.00000    90.00000    90.00000  Step:          13  Bead:       0 positions{angstrom}  cell{angstrom}
       O -3.12799e+00  1.06333e+00  3.59506e-01
       H -3.53537e+00  1.44227e+00 -4.30184e-01
       H -3.17743e+00  1.13134e-01  2.22570e-01
       H -3.02142e+00  1.63637e+00  1.18671e+00
4
# CELL(abcABC): 1000.00000  1000.00000  1000.00000    90.00000    90.00000    90.00000  Step:          14  Bead:       0 positions{angstrom}  cell{angstrom}
       O -3.12703e+00  1.06434e+00  3.57960e-01
       H -3.54142e+00  1.43535e+00 -4.30097e-01
       H -3.16995e+00  1.08482e-01  2.32964e-01
       H -3.03801e+00  1.63191e+00  1.20077e+00
4
# CELL(abcABC): 1000.00000  1000.00000  1000.00000    90.00000    90.00000    90.00000  Step:          15  Bead:       0 positions{angstrom}  cell{angstrom}
       O -3.12628e+00  1.06520e+00  3.56081e-01
       H -3.54721e+00  1.42681e+00 -4.26117e-01
       H -3.16225e+00  1.06505e-01  2.43706e-01
       H -3.05180e+00  1.62881e+00  1.21588e+00
4
# CELL(abcABC): 1000.00000  1000.00000  1000.00000    90.00000    90.00000    90.00000  Step:          16  Bead:       0 positions{angstrom}  cell{angstrom}
       O -3.12583e+00  1.06590e+00  3.54143e-01
       H -3.55005e+00  1.41712e+00 -4.21383e-01
       H -3.15395e+00  1.08017e-01  2.54478e-01
       H -3.06444e+00  1.62588e+00  1.23113e+00
4
# CELL(abcABC): 1000.00000  1000.00000  1000.00000    90.00000    90.00000    90.00000  Step:          17  Bead:       0 positions{angstrom}  cell{angstrom}
       O -3.12550e+00  1.06648e+00  3.52227e-01
       H -3.55075e+00  1.40752e+00 -4.16286e-01
       H -3.14600e+00  1.12441e-01  2.64017e-01
       H -3.07688e+00  1.62172e+00  1.24692e+00
4
# CELL(abcABC): 1000.00000  1000.00000  1000.00000    90.00000    90.00000    90.00000  Step:          18  Bead:       0 positions{angstrom}  cell{angstrom}
       O -3.12531e+00  1.06688e+00  3.50431e-01
       H -3.55165e+00  1.39891e+00 -4.12011e-01
       H -3.13636e+00  1.18535e-01  2.72942e-01
       H -3.08876e+00  1.61801e+00  1.26221e+00
4
# CELL(abcABC): 1000.00000  1000.00000  1000.00000    90.00000    90.00000    90.00000  Step:          19  Bead:       0 positions{angstrom}  cell{angstrom}
       O -3.12532e+00  1.06724e+00  3.48838e-01
       H -3.55185e+00  1.39074e+00 -4.09335e-01
       H -3.12693e+00  1.24856e-01  2.80394e-01
       H -3.09770e+00  1.61415e+00  1.27737e+00
4
# CELL(abcABC): 1000.00000  1000.00000  1000.00000    90.00000    90.00000    90.00000  Step:          20  Bead:       0 positions{angstrom}  cell{angstrom}
       O -3.12543e+00  1.06760e+00  3.47610e-01
       H -3.55214e+00  1.38394e+00 -4.11065e-01
       H -3.11794e+00  1.31145e-01  2.87045e-01
       H -3.10472e+00  1.60886e+00  1.29194e+00
4
# CELL(abcABC): 1000.00000  1000.00000  1000.00000    90.00000    90.00000    90.00000  Step:          21  Bead:       0 positions{angstrom}  cell{angstrom}
       O -3.12570e+00  1.06799e+00  3.46814e-01
       H -3.55316e+00  1.37763e+00 -4.17379e-01
       H -3.10679e+00  1.36927e-01  2.93418e-01
       H -3.11052e+00  1.60330e+00  1.30452e+00
4
# CELL(abcABC): 1000.00000  1000.00000  1000.00000    90.00000    90.00000    90.00000  Step:          22  Bead:       0 positions{angstrom}  cell{angstrom}
       O -3.12615e+00  1.06838e+00  3.46481e-01
       H -3.55544e+00  1.37126e+00 -4.25902e-01
       H -3.09284e+00  1.41051e-01  2.96799e-01
       H -3.11502e+00  1.59934e+00  1.31495e+00
4
# CELL(abcABC): 1000.00000  1000.00000  1000.00000    90.00000    90.00000    90.00000  Step:          23  Bead:       0 positions{angstrom}  cell{angstrom}
       O -3.12679e+00  1.06889e+00  3.46680e-01
       H -3.55736e+00  1.36596e+00 -4.37477e-01
       H -3.07715e+00  1.43217e-01  2.99071e-01
       H -3.11873e+00  1.59433e+00  1.32110e+00
4
# CELL(abcABC): 1000.00000  1000.00000  1000.00000    90.00000    90.00000    90.00000  Step:          24  Bead:       0 positions{angstrom}  cell{angstrom}
       O -3.12764e+00  1.06947e+00  3.47168e-01
       H -3.55793e+00  1.35982e+00 -4.50566e-01
       H -3.06012e+00  1.43861e-01  3.00040e-01
       H -3.12172e+00  1.59066e+00  1.32546e+00
4
# CELL(abcABC): 1000.00000  1000.00000  1000.00000    90.00000    90.00000    90.00000  Step:          25  Bead:       0 positions{angstrom}  cell{angstrom}
       O -3.12866e+00  1.07030e+00  3.47775e-01
       H -3.55725e+00  1.35250e+00 -4.63170e-01
       H -3.04242e+00  1.41450e-01  2.99650e-01
       H -3.12380e+00  1.58723e+00  1.32883e+00
4
# CELL(abcABC): 1000.00000  1000.00000  1000.00000    90.00000    90.00000    90.00000  Step:          26  Bead:       0 positions{angstrom}  cell{angstrom}
       O -3.12991e+00  1.07133e+00  3.48493e-01
       H -3.55486e+00  1.34412e+00 -4.75856e-01
       H -3.02345e+00  1.37110e-01  2.97596e-01
       H -3.12539e+00  1.58346e+00  1.33218e+00
4
# CELL(abcABC): 1000.00000  1000.00000  1000.00000    90.00000    90.00000    90.00000  Step:          27  Bead:       0 positions{angstrom}  cell{angstrom}
       O -3.13149e+00  1.07241e+00  3.49306e-01
       H -3.55062e+00  1.33617e+00 -4.87776e-01
       H -3.00364e+00  1.31442e-01  2.93865e-01
       H -3.12436e+00  1.57995e+00  1.33491e+00
4
# CELL(abcABC): 1000.00000  1000.00000  1000.00000    90.00000    90.00000    90.00000  Step:          28  Bead:       0 positions{angstrom}  cell{angstrom}
       O -3.13324e+00  1.07346e+00  3.50068e-01
       H -3.54523e+00  1.32615e+00 -4.97760e-01
       H -2.98265e+00  1.26792e-01  2.89202e-01
       H -3.12291e+00  1.57802e+00  1.33746e+00
4
# CELL(abcABC): 1000.00000  1000.00000  1000.00000    90.00000    90.00000    90.00000  Step:          29  Bead:       0 positions{angstrom}  cell{angstrom}
       O -3.13523e+00  1.07433e+00  3.50815e-01
       H -3.53691e+00  1.31598e+00 -5.06707e-01
       H -2.96231e+00  1.24249e-01  2.83545e-01
       H -3.12003e+00  1.57686e+00  1.34022e+00
4
# CELL(abcABC): 1000.00000  1000.00000  1000.00000    90.00000    90.00000    90.00000  Step:          30  Bead:       0 positions{angstrom}  cell{angstrom}
       O -3.13739e+00  1.07488e+00  3.51464e-01
       H -3.52606e+00  1.30652e+00 -5.12266e-01
       H -2.94226e+00  1.24780e-01  2.77524e-01
       H -3.11655e+00  1.57710e+00  1.34150e+00
4
# CELL(abcABC): 1000.00000  1000.00000  1000.00000    90.00000    90.00000    90.00000  Step:          31  Bead:       0 positions{angstrom}  cell{angstrom}
       O -3.13983e+00  1.07503e+00  3.52104e-01
       H -3.51181e+00  1.29719e+00 -5.15180e-01
       H -2.92195e+00  1.30127e-01  2.70295e-01
       H -3.11247e+00  1.57870e+00  1.34148e+00
4
# CELL(abcABC): 1000.00000  1000.00000  1000.00000    90.00000    90.00000    90.00000  Step:          32  Bead:       0 positions{angstrom}  cell{angstrom}
       O -3.14232e+00  1.07496e+00  3.52515e-01
       H -3.49714e+00  1.28629e+00 -5.15562e-01
       H -2.90168e+00  1.40470e-01  2.63908e-01
       H -3.10787e+00  1.58033e+00  1.34173e+00
4
# CELL(abcABC): 1000.00000  1000.00000  1000.00000    90.00000    90.00000    90.00000  Step:          33  Bead:       0 positions{angstrom}  cell{angstrom}
       O -3.14482e+00  1.07473e+00  3.52810e-01
       H -3.48233e+00  1.27537e+00 -5.13673e-01
       H -2.88167e+00  1.53033e-01  2.57841e-01
       H -3.10294e+00  1.58242e+00  1.34122e+00
4
# CELL(abcABC): 1000.00000  1000.00000  1000.00000    90.00000    90.00000    90.00000  Step:          34  Bead:       0 positions{angstrom}  cell{angstrom}
       O -3.14716e+00  1.07427e+00  3.53260e-01
       H -3.46716e+00  1.26533e+00 -5.12117e-01
       H -2.86410e+00  1.67513e-01  2.52124e-01
       H -3.09855e+00  1.58533e+00  1.33823e+00
4
# CELL(abcABC): 1000.00000  1000.00000  1000.00000    90.00000    90.00000    90.00000  Step:          35  Bead:       0 positions{angstrom}  cell{angstrom}
       O -3.14946e+00  1.07356e+00  3.53840e-01
       H -3.45105e+00  1.25667e+00 -5.12684e-01
       H -2.84821e+00  1.84235e-01  2.47259e-01
       H -3.09407e+00  1.58851e+00  1.33446e+00
4
# CELL(abcABC): 1000.00000  1000.00000  1000.00000    90.00000    90.00000    90.00000  Step:          36  Bead:       0 positions{angstrom}  cell{angstrom}
       O -3.15170e+00  1.07263e+00  3.54619e-01
       H -3.43603e+00  1.24983e+00 -5.16101e-01
       H -2.83228e+00  2.02102e-01  2.41853e-01
       H -3.08956e+00  1.59225e+00  1.33092e+00
4
# CELL(abcABC): 1000.00000  1000.00000  1000.00000    90.00000    90.00000    90.00000  Step:          37  Bead:       0 positions{angstrom}  cell{angstrom}
       O -3.15390e+00  1.07171e+00  3.55482e-01
       H -3.42202e+00  1.24581e+00 -5.20475e-01
       H -2.81544e+00  2.17572e-01  2.36323e-01
       H -3.08546e+00  1.59532e+00  1.32712e+00
4
# CELL(abcABC): 1000.00000  1000.00000  1000.00000    90.00000    90.00000    90.00000  Step:          38  Bead:       0 positions{angstrom}  cell{angstrom}
       O -3.15586e+00  1.07083e+00  3.56696e-01
       H -3.41089e+00  1.24370e+00 -5.28791e-01
       H -2.79761e+00  2.28884e-01  2.30939e-01
       H -3.08327e+00  1.60012e+00  1.32156e+00
4
# CELL(abcABC): 1000.00000  1000.00000  1000.00000    90.00000    90.00000    90.00000  Step:          39  Bead:       0 positions{angstrom}  cell{angstrom}
       O -3.15792e+00  1.07015e+00  3.57923e-01
       H -3.40083e+00  1.24302e+00 -5.38554e-01
       H -2.77816e+00  2.35424e-01  2.27006e-01
       H -3.08011e+00  1.60501e+00  1.31578e+00
4
# CELL(abcABC): 1000.00000  1000.00000  1000.00000    90.00000    90.00000    90.00000  Step:          40  Bead:       0 positions{angstrom}  cell{angstrom}
       O -3.15994e+00  1.06950e+00  3.58989e-01
       H -3.39243e+00  1.24430e+00 -5.48227e-01
       H -2.75738e+00  2.38832e-01  2.25478e-01
       H -3.07719e+00  1.61060e+00  1.31005e+00
4
# CELL(abcABC): 1000.00000  1000.00000  1000.00000    90.00000    90.00000    90.00000  Step:          41  Bead:       0 positions{angstrom}  cell{angstrom}
       O -3.16185e+00  1.06887e+00  3.59928e-01
       H -3.38586e+00  1.24784e+00 -5.58056e-01
       H -2.73536e+00  2.40226e-01  2.25282e-01
       H -3.07538e+00  1.61576e+00  1.30517e+00
4
# CELL(abcABC): 1000.00000  1000.00000  1000.00000    90.00000    90.00000    90.00000  Step:          42  Bead:       0 positions{angstrom}  cell{angstrom}
       O -3.16374e+00  1.06836e+00  3.60748e-01
       H -3.37917e+00  1.25066e+00 -5.66743e-01
       H -2.71313e+00  2.40470e-01  2.26678e-01
       H -3.07444e+00  1.62083e+00  1.29945e+00
4
# CELL(abcABC): 1000.00000  1000.00000  1000.00000    90.00000    90.00000    90.00000  Step:          43  Bead:       0 positions{angstrom}  cell{angstrom}
       O -3.16541e+00  1.06772e+00  3.61333e-01
       H -3.37392e+00  1.25509e+00 -5.73344e-01
       H -2.69163e+00  2.42142e-01  2.29730e-01
       H -3.07465e+00  1.62484e+00  1.29372e+00
4
# CELL(abcABC): 1000.00000  1000.00000  1000.00000    90.00000    90.00000    90.00000  Step:          44  Bead:       0 positions{angstrom}  cell{angstrom}
       O -3.16681e+00  1.06702e+00  3.61616e-01
       H -3.36951e+00  1.25927e+00 -5.77380e-01
       H -2.67165e+00  2.44511e-01  2.33815e-01
       H -3.07678e+00  1.62935e+00  1.28917e+00
4
# CELL(abcABC): 1000.00000  1000.00000  1000.00000    90.00000    90.00000    90.00000  Step:          45  Bead:       0 positions{angstrom}  cell{angstrom}
       O -3.16783e+00  1.06623e+00  3.61631e-01
       H -3.36662e+00  1.26372e+00 -5.78461e-01
       H -2.65321e+00  2.48139e-01  2.38597e-01
       H -3.08195e+00  1.63384e+00  1.28522e+00
4
# CELL(abcABC): 1000.00000  1000.00000  1000.00000    90.00000    90.00000    90.00000  Step:          46  Bead:       0 positions{angstrom}  cell{angstrom}
       O -3.16856e+00  1.06533e+00  3.61351e-01
       H -3.36472e+00  1.26869e+00 -5.76236e-01
       H -2.63764e+00  2.53333e-01  2.44320e-01
       H -3.08776e+00  1.63800e+00  1.28173e+00
4
# CELL(abcABC): 1000.00000  1000.00000  1000.00000    90.00000    90.00000    90.00000  Step:          47  Bead:       0 positions{angstrom}  cell{angstrom}
       O -3.16893e+00  1.06418e+00  3.60893e-01
       H -3.36364e+00  1.27310e+00 -5.70240e-01
       H -2.62501e+00  2.61376e-01  2.50404e-01
       H -3.09572e+00  1.64379e+00  1.27691e+00
4
# CELL(abcABC): 1000.00000  1000.00000  1000.00000    90.00000    90.00000    90.00000  Step:          48  Bead:       0 positions{angstrom}  cell{angstrom}
       O -3.16891e+00  1.06300e+00  3.60181e-01
       H -3.36295e+00  1.27610e+00 -5.61055e-01
       H -2.61550e+00  2.72456e-01  2.56727e-01
       H -3.10609e+00  1.64844e+00  1.27271e+00
4
# CELL(abcABC): 1000.00000  1000.00000  1000.00000    90.00000    90.00000    90.00000  Step:          49  Bead:       0 positions{angstrom}  cell{angstrom}
       O -3.16860e+00  1.06174e+00  3.59196e-01
       H -3.36316e+00  1.27824e+00 -5.49459e-01
       H -2.60764e+00  2.85092e-01  2.63859e-01
       H -3.11873e+00  1.65365e+00  1.26962e+00
4
# CELL(abcABC): 1000.00000  1000.00000  1000.00000    90.00000    90.00000    90.00000  Step:          50  Bead:       0 positions{angstrom}  cell{angstrom}
       O -3.16779e+00  1.06052e+00  3.58263e-01
       H -3.36488e+00  1.28021e+00 -5.37756e-01
       H -2.60387e+00  2.97996e-01  2.71443e-01
       H -3.13368e+00  1.65813e+00  1.26514e+00
4
# CELL(abcABC): 1000.00000  1000.00000  1000.00000    90.00000    90.00000    90.00000  Step:          51  Bead:       0 positions{angstrom}  cell{angstrom}
       O -3.16669e+00  1.05933e+00  3.57415e-01
       H -3.36838e+00  1.28163e+00 -5.27576e-01
       H -2.60205e+00  3.11060e-01  2.78900e-01
       H -3.14942e+00  1.66251e+00  1.26096e+00
4
# CELL(abcABC): 1000.00000  1000.00000  1000.00000    90.00000    90.00000    90.00000  Step:          52  Bead:       0 positions{angstrom}  cell{angstrom}
       O -3.16533e+00  1.05836e+00  3.56856e-01
       H -3.37389e+00  1.28282e+00 -5.19753e-01
       H -2.60117e+00  3.22079e-01  2.84885e-01
       H -3.16633e+00  1.66570e+00  1.25603e+00
4
# CELL(abcABC): 1000.00000  1000.00000  1000.00000    90.00000    90.00000    90.00000  Step:          53  Bead:       0 positions{angstrom}  cell{angstrom}
       O -3.16382e+00  1.05757e+00  3.56516e-01
       H -3.38055e+00  1.28457e+00 -5.16070e-01
       H -2.60033e+00  3.31808e-01  2.90881e-01
       H -3.18461e+00  1.66678e+00  1.25175e+00
4
# CELL(abcABC): 1000.00000  1000.00000  1000.00000    90.00000    90.00000    90.00000  Step:          54  Bead:       0 positions{angstrom}  cell{angstrom}
       O -3.16217e+00  1.05716e+00  3.56185e-01
       H -3.38891e+00  1.28538e+00 -5.14665e-01
       H -2.59869e+00  3.38411e-01  2.96807e-01
       H -3.20401e+00  1.66589e+00  1.24967e+00
4
# CELL(abcABC): 1000.00000  1000.00000  1000.00000    90.00000    90.00000    90.00000  Step:          55  Bead:       0 positions{angstrom}  cell{angstrom}
       O -3.16053e+00  1.05713e+00  3.56081e-01
       H -3.39928e+00  1.28609e+00 -5.15599e-01
       H -2.59502e+00  3.40549e-01  3.02398e-01
       H -3.22330e+00  1.66356e+00  1.24667e+00
4
# CELL(abcABC): 1000.00000  1000.00000  1000.00000    90.00000    90.00000    90.00000  Step:          56  Bead:       0 positions{angstrom}  cell{angstrom}
       O -3.15897e+00  1.05744e+00  3.56198e-01
       H -3.40852e+00  1.28652e+00 -5.18374e-01
       H -2.58948e+00  3.37820e-01  3.05767e-01
       H -3.24435e+00  1.66083e+00  1.24422e+00
4
# CELL(abcABC): 1000.00000  1000.00000  1000.00000    90.00000    90.00000    90.00000  Step:          57  Bead:       0 positions{angstrom}  cell{angstrom}
       O -3.15743e+00  1.05807e+00  3.56435e-01
       H -3.41674e+00  1.28671e+00 -5.22203e-01
       H -2.58340e+00  3.30724e-01  3.08967e-01
       H -3.26671e+00  1.65774e+00  1.24108e+00
4
# CELL(abcABC): 1000.00000  1000.00000  1000.00000    90.00000    90.00000    90.00000  Step:          58  Bead:       0 positions{angstrom}  cell{angstrom}
       O -3.15598e+00  1.05904e+00  3.56788e-01
       H -3.42390e+00  1.28504e+00 -5.26838e-01
       H -2.57614e+00  3.20898e-01  3.11684e-01
       H -3.28985e+00  1.65389e+00  1.23739e+00
4
# CELL(abcABC): 1000.00000  1000.00000  1000.00000    90.00000    90.00000    90.00000  Step:          59  Bead:       0 positions{angstrom}  cell{angstrom}
       O -3.15458e+00  1.06017e+00  3.57083e-01
       H -3.42965e+00  1.28215e+00 -5.31143e-01
       H -2.56876e+00  3.10364e-01  3.14987e-01
       H -3.31364e+00  1.64941e+00  1.23372e+00
4
# CELL(abcABC): 1000.00000  1000.00000  1000.00000    90.00000    90.00000    90.00000  Step:          60  Bead:       0 positions{angstrom}  cell{angstrom}
       O -3.15320e+00  1.06147e+00  3.57437e-01
       H -3.43555e+00  1.27739e+00 -5.34434e-01
       H -2.56174e+00  2.99495e-01  3.15811e-01
       H -3.33666e+00  1.64445e+00  1.23057e+00
4
# CELL(abcABC): 1000.00000  1000.00000  1000.00000    90.00000    90.00000    90.00000  Step:          61  Bead:       0 positions{angstrom}  cell{angstrom}
       O -3.15188e+00  1.06284e+00  3.57795e-01
       H -3.43936e+00  1.27059e+00 -5.36539e-01
       H -2.55549e+00  2.90037e-01  3.14538e-01
       H -3.36016e+00  1.63897e+00  1.22825e+00
4
# CELL(abcABC): 1000.00000  1000.00000  1000.00000    90.00000    90.00000    90.00000  Step:          62  Bead:       0 positions{angstrom}  cell{angstrom}
       O -3.15041e+00  1.06424e+00  3.58239e-01
       H -3.44260e+00  1.26152e+00 -5.37404e-01
       H -2.55317e+00  2.82828e-01  3.12068e-01
       H -3.38256e+00  1.63288e+00  1.22454e+00
4
# CELL(abcABC): 1000.00000  1000.00000  1000.00000    90.00000    90.00000    90.00000  Step:          63  Bead:       0 positions{angstrom}  cell{angstrom}
       O -3.14879e+00  1.06544e+00  3.58467e-01
       H -3.44413e+00  1.25221e+00 -5.36041e-01
       H -2.55433e+00  2.78257e-01  3.08886e-01
       H -3.40546e+00  1.62776e+00  1.22274e+00
4
# CELL(abcABC): 1000.00000  1000.00000  1000.00000    90.00000    90.00000    90.00000  Step:          64  Bead:       0 positions{angstrom}  cell{angstrom}
       O -3.14712e+00  1.06648e+00  3.58595e-01
       H -3.44312e+00  1.24231e+00 -5.32178e-01
       H -2.55841e+00  2.77097e-01  3.05345e-01
       H -3.42891e+00  1.62229e+00  1.22039e+00
4
# CELL(abcABC): 1000.00000  1000.00000  1000.00000    90.00000    90.00000    90.00000  Step:          65  Bead:       0 positions{angstrom}  cell{angstrom}
       O -3.14537e+00  1.06729e+00  3.58713e-01
       H -3.44184e+00  1.23259e+00 -5.28535e-01
       H -2.56482e+00  2.80714e-01  3.01434e-01
       H -3.45162e+00  1.61561e+00  1.21879e+00
4
# CELL(abcABC): 1000.00000  1000.00000  1000.00000    90.00000    90.00000    90.00000  Step:          66  Bead:       0 positions{angstrom}  cell{angstrom}
       O -3.14357e+00  1.06782e+00  3.58732e-01
       H -3.43991e+00  1.22548e+00 -5.23966e-01
       H -2.57344e+00  2.85825e-01  2.97795e-01
       H -3.47342e+00  1.60917e+00  1.21756e+00
4
# CELL(abcABC): 1000.00000  1000.00000  1000.00000    90.00000    90.00000    90.00000  Step:          67  Bead:       0 positions{angstrom}  cell{angstrom}
       O -3.14169e+00  1.06828e+00  3.58777e-01
       H -3.43728e+00  1.21804e+00 -5.20698e-01
       H -2.58300e+00  2.93135e-01  2.94763e-01
       H -3.49635e+00  1.60201e+00  1.21661e+00
4
# CELL(abcABC): 1000.00000  1000.00000  1000.00000    90.00000    90.00000    90.00000  Step:          68  Bead:       0 positions{angstrom}  cell{angstrom}
       O -3.13988e+00  1.06860e+00  3.59028e-01
       H -3.43384e+00  1.21118e+00 -5.18838e-01
       H -2.59258e+00  3.01451e-01  2.90335e-01
       H -3.51902e+00  1.59543e+00  1.21519e+00
4
# CELL(abcABC): 1000.00000  1000.00000  1000.00000    90.00000    90.00000    90.00000  Step:          69  Bead:       0 positions{angstrom}  cell{angstrom}
       O -3.13811e+00  1.06902e+00  3.59181e-01
       H -3.43080e+00  1.20387e+00 -5.16888e-01
       H -2.60194e+00  3.09403e-01  2.87099e-01
       H -3.54085e+00  1.58820e+00  1.21405e+00
4
# CELL(abcABC): 1000.00000  1000.00000  1000.00000    90.00000    90.00000    90.00000  Step:          70  Bead:       0 positions{angstrom}  cell{angstrom}
       O -3.13666e+00  1.06935e+00  3.59443e-01
       H -3.42759e+00  1.19838e+00 -5.17849e-01
       H -2.60892e+00  3.16227e-01  2.83937e-01
       H -3.55996e+00  1.58156e+00  1.21401e+00
4
# CELL(abcABC): 1000.00000  1000.00000  1000.00000    90.00000    90.00000    90.00000  Step:          71  Bead:       0 positions{angstrom}  cell{angstrom}
       O -3.13543e+00  1.06989e+00  3.59875e-01
       H -3.42533e+00  1.19307e+00 -5.22199e-01
       H -2.61309e+00  3.19401e-01  2.80740e-01
       H -3.57771e+00  1.57520e+00  1.21469e+00
4
# CELL(abcABC): 1000.00000  1000.00000  1000.00000    90.00000    90.00000    90.00000  Step:          72  Bead:       0 positions{angstrom}  cell{angstrom}
       O -3.13453e+00  1.07048e+00  3.60320e-01
       H -3.42284e+00  1.18928e+00 -5.27750e-01
       H -2.61320e+00  3.18986e-01  2.78798e-01
       H -3.59426e+00  1.57003e+00  1.21512e+00
4
# CELL(abcABC): 1000.00000  1000.00000  1000.00000    90.00000    90.00000    90.00000  Step:          73  Bead:       0 positions{angstrom}  cell{angstrom}
       O -3.13393e+00  1.07124e+00  3.60846e-01
       H -3.42041e+00  1.18651e+00 -5.34253e-01
       H -2.60946e+00  3.15333e-01  2.77523e-01
       H -3.61007e+00  1.56428e+00  1.21456e+00
4
# CELL(abcABC): 1000.00000  1000.00000  1000.00000    90.00000    90.00000    90.00000  Step:          74  Bead:       0 positions{angstrom}  cell{angstrom}
       O -3.13366e+00  1.07204e+00  3.61480e-01
       H -3.41731e+00  1.18491e+00 -5.42058e-01
       H -2.60241e+00  3.08955e-01  2.75888e-01
       H -3.62438e+00  1.55959e+00  1.21394e+00
4
# CELL(abcABC): 1000.00000  1000.00000  1000.00000    90.00000    90.00000    90.00000  Step:          75  Bead:       0 positions{angstrom}  cell{angstrom}
       O -3.13351e+00  1.07288e+00  3.61995e-01
       H -3.41407e+00  1.18329e+00 -5.49486e-01
       H -2.59359e+00  3.00605e-01  2.76009e-01
       H -3.63880e+00  1.55624e+00  1.21307e+00
4
# CELL(abcABC): 1000.00000  1000.00000  1000.00000    90.00000    90.00000    90.00000  Step:          76  Bead:       0 positions{angstrom}  cell{angstrom}
       O -3.13366e+00  1.07350e+00  3.62202e-01
       H -3.40911e+00  1.18278e+00 -5.54070e-01
       H -2.58368e+00  2.92511e-01  2.77402e-01
       H -3.65133e+00  1.55502e+00  1.21297e+00
4
# CELL(abcABC): 1000.00000  1000.00000  1000.00000    90.00000    90.00000    90.00000  Step:          77  Bead:       0 positions{angstrom}  cell{angstrom}
       O -3.13387e+00  1.07390e+00  3.62154e-01
       H -3.40323e+00  1.18397e+00 -5.56494e-01
       H -2.57409e+00  2.86374e-01  2.80718e-01
       H -3.66343e+00  1.55360e+00  1.21284e+00
4
# CELL(abcABC): 1000.00000  1000.00000  1000.00000    90.00000    90.00000    90.00000  Step:          78  Bead:       0 positions{angstrom}  cell{angstrom}
       O -3.13412e+00  1.07406e+00  3.62045e-01
       H -3.39751e+00  1.18523e+00 -5.57622e-01
       H -2.56436e+00  2.83634e-01  2.85126e-01
       H -3.67493e+00  1.55254e+00  1.21129e+00
4
# CELL(abcABC): 1000.00000  1000.00000  1000.00000    90.00000    90.00000    90.00000  Step:          79  Bead:       0 positions{angstrom}  cell{angstrom}
       O -3.13449e+00  1.07403e+00  3.61690e-01
       H -3.39148e+00  1.18771e+00 -5.55330e-01
       H -2.55453e+00  2.83520e-01  2.90636e-01
       H -3.68505e+00  1.55069e+00  1.20913e+00
4
# CELL(abcABC): 1000.00000  1000.00000  1000.00000    90.00000    90.00000    90.00000  Step:          80  Bead:       0 positions{angstrom}  cell{angstrom}
       O -3.13496e+00  1.07370e+00  3.61054e-01
       H -3.38424e+00  1.19117e+00 -5.51385e-01
       H -2.54585e+00  2.87082e-01  2.98401e-01
       H -3.69350e+00  1.54887e+00  1.20752e+00
4
# CELL(abcABC): 1000.00000  1000.00000  1000.00000    90.00000    90.00000    90.00000  Step:          81  Bead:       0 positions{angstrom}  cell{angstrom}
       O -3.13548e+00  1.07292e+00  3.60370e-01
       H -3.37430e+00  1.19620e+00 -5.47212e-01
       H -2.53942e+00  2.96573e-01  3.07393e-01
       H -3.70151e+00  1.54673e+00  1.20519e+00
4
# CELL(abcABC): 1000.00000  1000.00000  1000.00000    90.00000    90.00000    90.00000  Step:          82  Bead:       0 positions{angstrom}  cell{angstrom}
       O -3.13600e+00  1.07199e+00  3.59556e-01
       H -3.36329e+00  1.20139e+00 -5.42340e-01
       H -2.53408e+00  3.08492e-01  3.17155e-01
       H -3.70972e+00  1.54436e+00  1.20349e+00
4
# CELL(abcABC): 1000.00000  1000.00000  1000.00000    90.00000    90.00000    90.00000  Step:          83  Bead:       0 positions{angstrom}  cell{angstrom}
       O -3.13654e+00  1.07076e+00  3.58793e-01
       H -3.35208e+00  1.20781e+00 -5.38191e-01
       H -2.52979e+00  3.23736e-01  3.27533e-01
       H -3.71659e+00  1.54232e+00  1.20108e+00
4
# CELL(abcABC): 1000.00000  1000.00000  1000.00000    90.00000    90.00000    90.00000  Step:          84  Bead:       0 positions{angstrom}  cell{angstrom}
       O -3.13708e+00  1.06935e+00  3.58191e-01
       H -3.33984e+00  1.21430e+00 -5.37186e-01
       H -2.52688e+00  3.41072e-01  3.38164e-01
       H -3.72310e+00  1.54081e+00  1.19900e+00
4
# CELL(abcABC): 1000.00000  1000.00000  1000.00000    90.00000    90.00000    90.00000  Step:          85  Bead:       0 positions{angstrom}  cell{angstrom}