14
# CELL(abcABC): 1000.00000  1000.00000  1000.00000    90.00000    90.00000    90.00000  Step:         107  Bead:       0 positions{angstrom}  cell{angstrom}
       C -5.93113e-01  6.74310e-01  6.82201e-03
       C  2.54285e-01 -4.26230e-01  7.37207e-01
       C -1.93119e+00  6.48210e-02 -5.61602e-01
       C -7.60196e-01  1.95275e+00  8.02369e-01
       H -1.38054e+00  1.96839e+00  1.68964e+00
       H -1.26544e+00  2.74084e+00  2.15336e-01
       H  1.96568e-01  2.38714e+00  1.13234e+00
       H -1.75996e+00 -7.34678e-01 -1.26130e+00
       H -2.53733e+00  8.32258e-01 -1.03827e+00
       H -2.56171e+00 -4.11399e-01  1.67366e-01
       H  1.19058e+00 -8.17113e-02  1.00086e+00
       H  4.05976e-01 -1.27253e+00  1.26272e-01
       H -3.36646e-01 -6.98059e-01  1.67498e+00
       H -1.12410e-02  7.50097e-01 -1.14557e+00
