6
# CELL(abcABC): 1000.00000  1000.00000  1000.00000    90.00000    90.00000    90.00000  Step:         456  Bead:       0 positions{angstrom}  cell{angstrom}
       C -9.28858e-01  2.27786e+00 -1.08387e-01
       H -2.33230e-01  2.24452e+00 -8.93256e-01
       H -4.81090e-01  1.90211e+00  8.01615e-01
       H -1.77480e+00  1.62422e+00 -3.04266e-01
       O -1.38680e+00  3.64386e+00  3.81267e-02
       H -9.39378e-01  4.08653e+00  7.68563e-01
