11115
# CELL(abcABC):   47.66706    47.66706    47.66706    90.00000    90.00000    90.00000  Step:       10000  Bead:       0 positions{angstrom}  cell{angstrom}
       C  4.61261e+00  4.35405e+00  5.36749e+00
       H  5.08773e+00  5.41373e+00  5.56320e+00
       H  4.40727e+00  3.83388e+00  6.39078e+00
       H  3.55815e+00  4.55661e+00  4.89138e+00
       C  5.44825e+00  3.52213e+00  4.48987e+00
       O  4.95534e+00  2.58587e+00  3.94897e+00
       N  6.71460e+00  3.89139e+00  4.37614e+00
       H  7.10095e+00  4.74899e+00  4.74496e+00
       C  7.74018e+00  3.10342e+00  3.61829e+00
       H  7.24031e+00  2.54983e+00  2.85960e+00
       C  8.65766e+00  3.99881e+00  2.83032e+00
       H  9.29075e+00  4.48419e+00  3.56992e+00
       H  8.07016e+00  4.82839e+00  2.42006e+00
       C  9.45246e+00  3.47030e+00  1.67211e+00
       O  1.02962e+01  4.24063e+00  1.11080e+00
       O  9.27376e+00  2.29840e+00  1.32335e+00
       H  9.79725e+00  1.98341e+00  4.18059e-01
       C  8.63684e+00  2.10757e+00  4.45701e+00
       O  9.56233e+00  1.49750e+00  3.92724e+00
       N  8.45379e+00  2.11902e+00  5.80440e+00
       H  9.07129e+00  1.58291e+00  6.37850e+00
       H  7.66072e+00  2.57007e+00  6.14253e+00
       O -1.98130e+01 -1.09085e+01 -8.04559e+00
       H -2.05938e+01 -1.07892e+01 -8.63797e+00
       H -1.91586e+01 -1.04077e+01 -8.57027e+00
       O -3.67415e+01 -2.61089e+01 -2.83770e+01
       H -3.71679e+01 -2.64295e+01 -2.75338e+01
       H -3.60158e+01 -2.67537e+01 -2.83986e+01
       O -1.20943e+01 -8.26491e+00  3.01665e+00
       H -1.19783e+01 -8.59771e+00  2.09615e+00
       H -1.14463e+01 -7.52084e+00  3.05907e+00
       O -2.56062e+01 -3.57943e+01 -1.28268e+01
       H -2.60294e+01 -3.66898e+01 -1.30180e+01
       H -2.48431e+01 -3.62073e+01 -1.24553e+01
       O -3.15794e+01 -2.58297e+01  4.83808e-01
       H -3.20367e+01 -2.63772e+01  1.10500e+00
       H -3.19473e+01 -2.49463e+01  5.91684e-01
       O -2.07748e+01 -2.86663e+01 -1.36760e+01
       H -2.02720e+01 -2.91659e+01 -1.30007e+01
       H -2.15126e+01 -2.92657e+01 -1.39623e+01
       O -2.51857e+01 -3.19176e+01 -1.80778e+01
       H -2.43000e+01 -3.22732e+01 -1.81072e+01
       H -2.53891e+01 -3.17316e+01 -1.71673e+01
       O -2.61044e+01 -1.46091e+01 -2.02040e+01
       H -2.56007e+01 -1.47471e+01 -2.10541e+01
       H -2.57829e+01 -1.54246e+01 -1.97268e+01
       O -1.48074e+01 -3.06859e+01 -2.53771e+01
       H -1.47230e+01 -3.07024e+01 -2.43917e+01
       H -1.39621e+01 -3.10523e+01 -2.56255e+01
       O -7.16824e-02 -3.70655e+01  5.83846e-01
       H -6.01047e-01 -3.78437e+01  3.06439e-01
       H -6.74675e-01 -3.62941e+01  3.78121e-01
       O -2.19899e+01 -7.17276e+00 -2.16665e+01
       H -2.28114e+01 -7.43028e+00 -2.20126e+01
       H -2.13790e+01 -7.79383e+00 -2.20828e+01
       O -7.07101e-01  1.21688e+01 -2.45111e+00
       H  1.61290e-01  1.24953e+01 -2.62910e+00
       H -4.54622e-01  1.11499e+01 -2.47063e+00
       O -1.35670e+01 -3.09721e+01 -2.30482e+01
       H -1.31048e+01 -3.16811e+01 -2.26996e+01
       H -1.37814e+01 -3.04273e+01 -2.22511e+01
       O -2.19432e+01 -1.47398e+01 -1.17963e+01
       H -2.23397e+01 -1.47562e+01 -1.27157e+01
       H -2.27495e+01 -1.44532e+01 -1.13114e+01
       O -3.70228e+01 -3.48090e+01 -4.51383e+01
       H -3.66621e+01 -3.57513e+01 -4.49737e+01
       H -3.79356e+01 -3.50189e+01 -4.52251e+01
       O -1.70139e+01 -1.58031e+01 -1.38412e+01
       H -1.78486e+01 -1.57108e+01 -1.33199e+01
       H -1.72003e+01 -1.67221e+01 -1.41989e+01
       O -3.21405e+01 -3.48722e+01  1.69972e+01
       H -3.20101e+01 -3.57438e+01  1.73666e+01
       H -3.14066e+01 -3.43229e+01  1.73054e+01
       O -1.34566e+01  5.56057e-01 -2.70905e+01
       H -1.33288e+01  1.53838e+00 -2.71169e+01
       H -1.29678e+01  4.90571e-01 -2.62361e+01
       O -2.00073e+01 -1.77944e+01  8.49935e+00
       H -1.99577e+01 -1.68787e+01  8.78727e+00
       H -1.92746e+01 -1.78052e+01  7.86300e+00
       O -3.55870e+01  1.39890e+01 -3.71223e+01
       H -3.48945e+01  1.44837e+01 -3.66356e+01
       H -3.54380e+01  1.31523e+01 -3.66373e+01
       O -1.14382e+00 -3.06820e+01 -1.57526e+01
       H -1.87649e+00 -3.07729e+01 -1.63221e+01
       H -3.56728e-01 -3.03906e+01 -1.63624e+01
       O -3.93496e+01 -5.78310e+00 -2.88622e+01
       H -3.95066e+01 -6.64087e+00 -2.93555e+01
       H -3.88112e+01 -6.11612e+00 -2.80848e+01
       O  1.80894e+00 -2.63963e+00 -1.04858e+01
       H  2.78668e+00 -2.48824e+00 -1.02724e+01
       H  1.93558e+00 -3.57398e+00 -1.07774e+01
       O -2.48166e+01 -1.85245e+01 -1.53212e+01
       H -2.43330e+01 -1.92631e+01 -1.56820e+01
       H -2.55440e+01 -1.89400e+01 -1.48333e+01
       O -1.48666e+01 -3.81972e+01 -3.53950e+01
       H -1.47500e+01 -3.91056e+01 -3.55402e+01
       H -1.58130e+01 -3.82356e+01 -3.52376e+01
       O -9.58356e+00 -2.08244e+00 -3.04200e+01
       H -9.95125e+00 -2.38349e+00 -2.95475e+01
       H -1.04115e+01 -1.90895e+00 -3.08617e+01
       O -8.22688e+00  2.20356e+01 -1.03031e+01
       H -7.74491e+00  2.11928e+01 -1.00781e+01
       H -7.87765e+00  2.25070e+01 -9.49136e+00
       O -1.15742e+01 -3.35621e+00  7.43972e+00
       H -1.07930e+01 -2.80525e+00  7.65094e+00
       H -1.11523e+01 -3.89618e+00  6.74966e+00
       O -1.13361e+01 -1.00456e+01 -1.39781e+01
       H -1.17072e+01 -1.03721e+01 -1.31264e+01
       H -1.21416e+01 -9.83616e+00 -1.44413e+01
       O -1.17003e+01 -1.59119e+01 -4.06372e+00
       H -1.17957e+01 -1.56674e+01 -3.12338e+00
       H -1.17037e+01 -1.50568e+01 -4.46809e+00
       O  1.90300e+01  7.42696e+00 -4.56321e+01
       H  1.84766e+01  7.30946e+00 -4.49003e+01
       H  1.91713e+01  6.46528e+00 -4.58618e+01
       O  8.89676e+00 -2.39780e+01 -1.96422e+01
       H  8.11365e+00 -2.34802e+01 -1.98132e+01
       H  9.52723e+00 -2.36762e+01 -2.03242e+01
       O  3.13358e+00 -3.40299e+00 -2.76543e+00
       H  2.72592e+00 -2.71104e+00 -2.23592e+00
       H  3.41440e+00 -2.95008e+00 -3.56748e+00
       O -3.77003e+01 -1.85714e+01  7.88489e-01
       H -3.80710e+01 -1.77416e+01  8.55652e-01
       H -3.84231e+01 -1.88903e+01  2.51417e-01
       O -2.21635e+00 -1.74735e+01 -1.82546e+01
       H -1.72242e+00 -1.75517e+01 -1.91421e+01
       H -2.62879e+00 -1.83033e+01 -1.81973e+01
       O -1.34672e+01 -1.98537e+01 -3.00397e+01
       H -1.39386e+01 -2.03717e+01 -3.07464e+01
       H -1.34634e+01 -1.90522e+01 -3.05632e+01
       O -1.21126e+01 -2.68933e+01 -3.08114e-01
       H -1.24759e+01 -2.73829e+01 -1.06810e+00
       H -1.11610e+01 -2.70697e+01 -4.60743e-01
       O -1.65944e+01 -4.01218e+01 -1.90769e+01
       H -1.69288e+01 -3.94871e+01 -1.84123e+01
       H -1.68747e+01 -3.97432e+01 -1.99485e+01
       O -1.13208e+01 -8.43603e+00  5.48974e+00
       H -1.07794e+01 -9.13488e+00  5.87629e+00
       H -1.12045e+01 -8.61774e+00  4.50465e+00
       O  1.32238e+01  3.00177e-01 -4.31137e+01
       H  1.25886e+01 -4.52549e-01 -4.30030e+01
       H  1.26452e+01  1.00705e+00 -4.27909e+01
       O  1.86677e-01 -3.15497e+01 -2.28572e+01
       H  4.86675e-02 -3.19890e+01 -2.36522e+01
       H -4.53051e-01 -3.19863e+01 -2.22884e+01
       O -3.61926e+01 -1.31986e+01 -5.48175e+00
       H -3.56626e+01 -1.34189e+01 -6.29453e+00
       H -3.57958e+01 -1.38945e+01 -4.92506e+00
       O  9.58733e+00 -1.37544e+01 -1.54631e+01
       H  1.04806e+01 -1.39710e+01 -1.54095e+01
       H  9.45028e+00 -1.32609e+01 -1.45834e+01
       O -2.13234e+01 -5.28232e+01 -3.08432e+01
       H -2.22234e+01 -5.30621e+01 -3.07399e+01
       H -2.09305e+01 -5.36097e+01 -3.03997e+01
       O -1.72925e+01 -7.68162e+00 -4.32751e+01
       H -1.70202e+01 -6.83796e+00 -4.36624e+01
       H -1.65434e+01 -8.21299e+00 -4.34043e+01
       O -9.84775e+00  4.25946e+00 -3.75703e+01
       H -1.04769e+01  3.53093e+00 -3.75337e+01
       H -9.07707e+00  3.72101e+00 -3.71808e+01
       O -5.46233e+01 -2.45542e+01 -8.02916e+00
       H -5.37865e+01 -2.48047e+01 -7.70130e+00
       H -5.51436e+01 -2.46095e+01 -7.23834e+00
       O -3.22697e+01 -1.35872e+01 -9.18851e+00
       H -3.18056e+01 -1.27667e+01 -9.35948e+00
       H -3.17069e+01 -1.39218e+01 -8.51199e+00
       O -2.58994e+01 -2.18885e+01 -1.85281e+01
       H -2.60566e+01 -2.26521e+01 -1.90648e+01
       H -2.66193e+01 -2.12332e+01 -1.85321e+01
       O  8.21961e+00 -3.22000e+00 -2.55969e-01
       H  7.29922e+00 -2.98612e+00 -1.26456e-01
       H  8.28233e+00 -3.14127e+00 -1.27231e+00
       O  1.57147e+00  8.66896e+00  1.07503e+01
       H  1.66679e+00  9.05452e+00  9.87571e+00
       H  9.64614e-01  9.33734e+00  1.10408e+01
       O -2.45097e+00  3.15560e-02  1.71834e+00
       H -2.29499e+00  8.99749e-01  1.67130e+00
       H -1.71081e+00 -3.17043e-01  2.24165e+00
       O -1.26793e+01 -4.61970e+00 -1.39745e+01
       H -1.28452e+01 -5.22674e+00 -1.46811e+01
       H -1.30896e+01 -3.85267e+00 -1.43451e+01
       O -6.96012e+00  1.59728e+01 -2.33100e+01
       H -6.01788e+00  1.58317e+01 -2.34820e+01
       H -7.29529e+00  1.51799e+01 -2.37524e+01
       O -1.70010e+01 -5.87041e-01 -1.08770e+01
       H -1.75399e+01  1.99428e-01 -1.09906e+01
       H -1.66091e+01 -6.44160e-01 -1.17218e+01
       O -1.39588e+01 -3.70141e+01 -3.05343e+01
       H -1.33519e+01 -3.65221e+01 -3.10217e+01
       H -1.40752e+01 -3.77515e+01 -3.11540e+01
       O -1.77950e+01 -2.80920e+01 -1.32309e+01
       H -1.86339e+01 -2.78716e+01 -1.36294e+01
       H -1.77761e+01 -2.75471e+01 -1.24585e+01
       O -1.73668e+01 -4.30341e+01 -1.05423e+01
       H -1.63964e+01 -4.32336e+01 -1.05410e+01
       H -1.74759e+01 -4.24293e+01 -9.78393e+00
       O  7.21112e+00 -3.88303e-01 -4.57242e+00
       H  7.79367e+00  3.26539e-01 -4.21369e+00
       H  7.58905e+00 -6.29386e-01 -5.42779e+00
       O -3.80777e+00 -3.02911e+01 -3.52941e+01
       H -3.69915e+00 -2.99950e+01 -3.62411e+01
       H -4.39245e+00 -3.10325e+01 -3.54197e+01
       O  1.00295e+01 -1.47284e-01 -2.09466e+01
       H  9.07165e+00 -1.73656e-01 -2.06251e+01
       H  1.02514e+01 -1.07879e+00 -2.07781e+01
       O -4.25912e+01 -1.65662e+01 -1.14417e+01
       H -4.19840e+01 -1.58115e+01 -1.11694e+01
       H -4.35023e+01 -1.62501e+01 -1.13195e+01
       O -1.67916e+01 -4.69073e+01 -2.05407e+01
       H -1.69700e+01 -4.59468e+01 -2.05007e+01
       H -1.75676e+01 -4.73042e+01 -2.08826e+01
       O -1.25328e+01 -2.72807e+01 -1.10656e+01
       H -1.20405e+01 -2.70789e+01 -1.01865e+01
       H -1.33414e+01 -2.67617e+01 -1.08898e+01
       O  5.50351e+00 -2.19573e+01 -1.82295e+01
       H  4.63436e+00 -2.16233e+01 -1.80133e+01
       H  5.23245e+00 -2.24711e+01 -1.89807e+01
       O -2.44040e+01 -4.07182e+01 -1.71008e+01
       H -2.42941e+01 -4.02710e+01 -1.62275e+01
       H -2.43438e+01 -4.16260e+01 -1.68275e+01
       O -3.84050e+01 -1.18177e+01 -2.11671e+01
       H -3.76644e+01 -1.11517e+01 -2.10358e+01
       H -3.91582e+01 -1.12493e+01 -2.14760e+01
       O -2.02116e+01 -1.56244e+01 -3.56212e+01
       H -2.10104e+01 -1.60720e+01 -3.59461e+01
       H -1.96091e+01 -1.64096e+01 -3.53970e+01
       O -2.31307e+01  8.77329e+00 -2.15993e+01
       H -2.39577e+01  9.08553e+00 -2.11889e+01
       H -2.30060e+01  7.95623e+00 -2.10722e+01
       O -2.40763e+01 -8.77959e+00 -1.44755e+01
       H -2.37832e+01 -9.59228e+00 -1.39597e+01
       H -2.37696e+01 -9.01672e+00 -1.53740e+01
       O -1.76369e+01 -2.62221e+01  1.03973e+01
       H -1.67579e+01 -2.57604e+01  1.01459e+01
       H -1.72851e+01 -2.71133e+01  1.05425e+01
       O  7.09391e+00 -1.00230e+01  3.78664e+00
       H  7.55561e+00 -9.17747e+00  3.89629e+00
       H  6.65621e+00 -1.01331e+01  4.62852e+00
       O -1.48214e+01 -2.34776e+01 -3.45084e+01
       H -1.43984e+01 -2.35853e+01 -3.53696e+01
       H -1.42063e+01 -2.40532e+01 -3.39690e+01
       O -1.23728e+01 -2.44614e+01 -3.35611e+01
       H -1.22264e+01 -2.53904e+01 -3.33802e+01
       H -1.15979e+01 -2.42221e+01 -3.40962e+01
       O -2.95363e+01 -3.61411e+01  1.13307e+01
       H -2.85820e+01 -3.64006e+01  1.11880e+01
       H -2.98759e+01 -3.69763e+01  1.09193e+01
       O -2.26969e+01 -2.32283e+01 -2.85537e+01
       H -2.26325e+01 -2.38969e+01 -2.79238e+01
       H -2.36582e+01 -2.31451e+01 -2.86299e+01
       O -6.73321e+00 -1.90224e+01  1.69925e+01
       H -6.05773e+00 -1.97225e+01  1.68197e+01
       H -7.42391e+00 -1.95458e+01  1.74098e+01
       O -4.01147e+01 -6.41420e+00 -3.42778e+00
       H -3.94918e+01 -6.18281e+00 -2.74087e+00
       H -4.09106e+01 -6.01663e+00 -3.12491e+00
       O -1.17215e+01 -2.68785e+01 -8.39412e+00
       H -1.11078e+01 -2.72522e+01 -7.74127e+00
       H -1.18059e+01 -2.59704e+01 -8.08623e+00
       O -2.15499e+01 -1.98331e+01 -2.14677e+01
       H -2.16554e+01 -2.03813e+01 -2.07210e+01
       H -2.23268e+01 -1.99898e+01 -2.19951e+01
       O -6.46210e+00 -1.29479e+01 -1.89561e+01
       H -7.06481e+00 -1.23667e+01 -1.95428e+01
       H -6.96602e+00 -1.38044e+01 -1.90430e+01
       O -1.00182e+01 -1.89301e+01 -1.27696e+01
       H -1.04783e+01 -1.97561e+01 -1.28117e+01
       H -1.04364e+01 -1.85390e+01 -1.35555e+01
       O -3.01561e+01  1.63878e+01 -1.48325e+01
       H -3.03021e+01  1.57258e+01 -1.41285e+01
       H -3.10194e+01  1.67192e+01 -1.50407e+01
       O -3.94214e-02 -1.94453e+01 -2.73118e+01
       H -8.10019e-01 -1.88970e+01 -2.70787e+01
       H  6.98222e-01 -1.87876e+01 -2.70844e+01
       O -7.45479e+00 -2.83325e+01 -4.66479e+01
       H -7.37538e+00 -2.82680e+01 -4.75967e+01
       H -6.54081e+00 -2.80640e+01 -4.62880e+01
       O -1.39990e+01 -1.75785e+01 -1.85426e+01
       H -1.43978e+01 -1.82804e+01 -1.80015e+01
       H -1.37263e+01 -1.81820e+01 -1.91768e+01
       O -1.08422e+01  3.50376e+00 -2.07525e+01
       H -9.96714e+00  3.96992e+00 -2.08533e+01
       H -1.14603e+01  4.09299e+00 -2.02442e+01
       O -9.59781e+00 -2.44507e+01 -3.84034e+01
       H -1.05400e+01 -2.41703e+01 -3.83079e+01
       H -9.31282e+00 -2.43841e+01 -3.93435e+01
       O -4.29761e+01 -3.00798e+01 -6.90104e+00
       H -4.35182e+01 -3.00910e+01 -7.72501e+00
       H -4.27186e+01 -2.91751e+01 -6.92341e+00
       O -2.07742e+01 -1.93084e+01  1.31219e+01
       H -2.10316e+01 -2.02561e+01  1.28544e+01
       H -2.15393e+01 -1.91477e+01  1.36525e+01
       O  5.55319e+00  2.89207e+00 -9.98797e-01
       H  4.87225e+00  3.59069e+00 -9.95173e-01
       H  6.42223e+00  3.35648e+00 -1.13333e+00
       O -2.34596e+01 -2.91583e+01 -1.44623e+01
       H -2.37859e+01 -3.00464e+01 -1.42457e+01
       H -2.42381e+01 -2.86050e+01 -1.42510e+01
       O  1.46691e+00 -6.22594e+00  1.48097e+01
       H  2.18446e+00 -5.68365e+00  1.44140e+01
       H  6.27516e-01 -5.77694e+00  1.45169e+01
       O -1.07581e+01 -7.03546e+00 -5.91455e+00
       H -1.16506e+01 -6.70007e+00 -5.63707e+00
       H -1.01434e+01 -6.28175e+00 -5.58402e+00
       O  1.40190e+01  1.03864e+01  4.61723e+00
       H  1.42807e+01  1.04829e+01  3.71768e+00
       H  1.36969e+01  1.12097e+01  4.91146e+00
       O -8.21369e+00 -1.63448e+00 -3.45645e+01
       H -8.02191e+00 -2.32478e+00 -3.39519e+01
       H -7.29726e+00 -1.58938e+00 -3.49874e+01
       O -6.02012e+00 -1.06807e+01 -3.67258e+01
       H -5.61337e+00 -1.04747e+01 -3.58564e+01
       H -6.06533e+00 -1.16487e+01 -3.66966e+01
       O -2.10478e+01 -9.45841e+00 -2.39695e+01
       H -2.05742e+01 -9.77231e+00 -2.31625e+01
       H -2.02726e+01 -9.49888e+00 -2.45560e+01
       O -1.91642e+01 -2.78232e+01 -4.09448e+01
       H -1.98310e+01 -2.77350e+01 -4.01813e+01
       H -1.89117e+01 -2.87934e+01 -4.09035e+01
       O -7.57449e+00  1.30565e+00  7.58063e+00
       H -7.91270e+00  7.44874e-01  6.91083e+00
       H -7.67687e+00  7.10286e-01  8.36345e+00
       O -1.61280e+01 -3.01130e+01 -1.18383e+01
       H -1.68615e+01 -2.94780e+01 -1.18453e+01
       H -1.64069e+01 -3.06967e+01 -1.25432e+01
       O  2.77563e+00 -8.70801e+00 -9.82119e+00
       H  2.02301e+00 -8.93541e+00 -9.31928e+00
       H  2.94935e+00 -7.75138e+00 -9.73241e+00
       O -1.04177e+00 -1.36427e+01 -4.48353e+00
       H -6.42382e-01 -1.35220e+01 -3.56043e+00
       H -4.92758e-01 -1.43653e+01 -4.88871e+00
       O  1.90476e+01  1.60381e+01 -2.20070e+01
       H  1.91891e+01  1.52170e+01 -2.14946e+01
       H  1.99390e+01  1.64576e+01 -2.20392e+01
       O -1.73210e+01 -2.35074e+01 -1.03525e+01
       H -1.70125e+01 -2.30310e+01 -1.11802e+01
       H -1.75734e+01 -2.26736e+01 -9.84505e+00
       O -1.85056e+01 -3.89539e+01 -6.04452e+00
       H -1.80405e+01 -3.82274e+01 -6.53343e+00
       H -1.78526e+01 -3.90667e+01 -5.37106e+00
       O -6.83148e+00 -3.82004e+01 -1.71776e+01
       H -6.69428e+00 -3.77086e+01 -1.63799e+01
       H -7.79429e+00 -3.80492e+01 -1.73001e+01
       O -2.10086e+00 -2.36956e+01 -1.67184e+01
       H -2.75953e+00 -2.32974e+01 -1.60816e+01
       H -2.47095e+00 -2.35088e+01 -1.75884e+01
       O -3.02428e+01 -5.18077e+00 -2.56961e+01
       H -3.01149e+01 -5.68410e+00 -2.65077e+01
       H -3.08537e+01 -5.72582e+00 -2.52268e+01
       O -2.19196e+01 -3.22494e+01 -2.32898e+01
       H -2.27094e+01 -3.17783e+01 -2.36391e+01
       H -2.12085e+01 -3.20109e+01 -2.39031e+01
       O -1.57650e+01 -6.76829e+00 -5.25493e+00
       H -1.67707e+01 -6.92798e+00 -5.45115e+00
       H -1.58216e+01 -5.78310e+00 -5.29492e+00
       O -1.90665e+01 -5.34654e+01 -4.93806e+01
       H -1.89394e+01 -5.36072e+01 -4.84259e+01
       H -1.82198e+01 -5.36551e+01 -4.98215e+01
       O -1.02209e+01 -2.45283e+01 -1.71812e+01
       H -9.48659e+00 -2.42797e+01 -1.65985e+01
       H -1.08996e+01 -2.50206e+01 -1.66490e+01
       O -1.59881e+01 -3.67726e+01 -1.54002e+01
       H -1.54896e+01 -3.69021e+01 -1.62082e+01
       H -1.66291e+01 -3.74616e+01 -1.55138e+01
       O -1.27479e+01 -6.16366e+00 -1.66661e+01
       H -1.25076e+01 -6.90045e+00 -1.73025e+01
       H -1.36908e+01 -6.28459e+00 -1.65925e+01
       O -2.52970e+01 -1.39630e+01 -1.66371e+01
       H -2.56355e+01 -1.48279e+01 -1.64308e+01
       H -2.58570e+01 -1.37136e+01 -1.74352e+01
       O -1.02060e+01 -2.04985e+01  3.57541e+00
       H -9.92417e+00 -1.97761e+01  2.91976e+00
       H -1.02155e+01 -2.12543e+01  2.97272e+00
       O -5.84110e+00 -2.21915e+01 -4.89268e+01
       H -5.68024e+00 -2.16442e+01 -4.81280e+01
       H -5.22535e+00 -2.19211e+01 -4.96002e+01
       O -7.72259e+00 -2.18049e+01 -1.34038e+01
       H -7.24887e+00 -2.24755e+01 -1.28890e+01
       H -8.27817e+00 -2.12576e+01 -1.28027e+01
       O -2.13250e+01 -2.27498e+01 -1.04416e+01
       H -2.10034e+01 -2.19894e+01 -1.09208e+01
       H -2.18638e+01 -2.24192e+01 -9.67102e+00
       O -2.54630e+01 -1.50653e+01 -2.29294e+01
       H -2.45400e+01 -1.50447e+01 -2.33441e+01
       H -2.60362e+01 -1.50495e+01 -2.37478e+01
       O  1.25298e+00 -9.93162e+00 -2.46534e+01
       H  1.81019e+00 -1.04812e+01 -2.52624e+01
       H  1.84059e+00 -9.54173e+00 -2.39216e+01
       O -4.34119e+00 -1.14656e+00  1.57652e+01
       H -4.33421e+00 -1.85046e+00  1.50850e+01
       H -5.16410e+00 -6.15044e-01  1.54708e+01
       O -2.42293e+01 -2.29594e+01  1.10910e+01
       H -2.40014e+01 -2.31656e+01  1.01537e+01
       H -2.49120e+01 -2.36263e+01  1.13399e+01
       O -2.64075e+01 -2.62338e+00 -3.59954e+00
       H -2.55456e+01 -2.73321e+00 -3.13040e+00
       H -2.60743e+01 -2.16331e+00 -4.41868e+00
       O -4.63922e+01 -2.00109e+01 -8.05836e+00
       H -4.67746e+01 -1.91739e+01 -8.37968e+00
       H -4.68567e+01 -2.06185e+01 -8.64673e+00
       O  1.35802e+01 -4.10118e+00  5.81236e+00
       H  1.33079e+01 -5.03535e+00  6.08610e+00
       H  1.30962e+01 -4.07708e+00  4.99372e+00
       O -2.92664e+01  5.40241e-01 -5.83551e+01
       H -3.01408e+01  7.92929e-01 -5.86619e+01
       H -2.93549e+01  5.06301e-01 -5.73919e+01
       O -8.87556e+00 -2.23604e+01 -9.87351e+00
       H -8.72463e+00 -2.22240e+01 -8.94560e+00
       H -8.61655e+00 -2.14849e+01 -1.02793e+01
       O -3.94436e+00 -1.45442e+01 -3.40774e+01
       H -3.20734e+00 -1.41116e+01 -3.36447e+01
       H -3.95281e+00 -1.41042e+01 -3.49287e+01
       O -5.48844e+01 -1.54718e+01  4.58842e-01
       H -5.57432e+01 -1.52790e+01  8.45678e-01
       H -5.43069e+01 -1.52374e+01  1.20718e+00
       O  3.25509e-02 -1.24515e+01  8.25518e+00
       H  8.06147e-01 -1.25490e+01  7.68827e+00
       H  3.08408e-01 -1.28894e+01  9.04581e+00
       O -8.27599e+00 -5.58705e+00  3.01208e+01
       H -9.24209e+00 -5.30578e+00  3.00567e+01
       H -8.17773e+00 -5.14147e+00  3.09435e+01
       O -1.21521e+01 -3.97477e+01 -4.02309e+01
       H -1.11991e+01 -3.99917e+01 -4.04747e+01
       H -1.26309e+01 -4.05968e+01 -4.00196e+01
       O -1.46453e+01 -1.20481e+01 -7.25158e+00
       H -1.54578e+01 -1.24828e+01 -7.09133e+00
       H -1.45595e+01 -1.14589e+01 -6.50348e+00
       O -1.34624e+01 -1.45436e+01  6.73434e+00
       H -1.42987e+01 -1.46390e+01  7.25375e+00
       H -1.32161e+01 -1.36765e+01  7.17471e+00
       O -1.79514e+01 -3.34468e+00 -5.40013e+00
       H -1.71663e+01 -3.85644e+00 -5.23471e+00
       H -1.75981e+01 -2.52351e+00 -5.61660e+00
       O -3.88948e+01 -4.06528e-01 -9.81024e-01
       H -3.91055e+01 -1.32113e+00 -8.24811e-01
       H -3.92089e+01  8.18030e-02 -2.06244e-01
       O -1.91002e+01 -1.85111e+01 -3.66600e+01
       H -1.94074e+01 -1.85041e+01 -3.76012e+01
       H -1.99098e+01 -1.85598e+01 -3.61438e+01
       O -1.47414e+01 -8.86318e+00  4.09052e+00
       H -1.45120e+01 -8.84494e+00  4.95757e+00
       H -1.39096e+01 -8.59836e+00  3.66375e+00
       O -8.37722e+00 -3.25525e+01 -4.24449e+00
       H -9.17831e+00 -3.22035e+01 -4.62149e+00
       H -8.09009e+00 -3.33063e+01 -4.76156e+00
       O  4.55887e+00 -5.53842e+01 -6.78916e+00
       H  4.76516e+00 -5.47441e+01 -6.11491e+00
       H  4.34966e+00 -5.47481e+01 -7.55741e+00
       O -6.64601e+00 -2.56050e+00  1.18553e+00
       H -6.25498e+00 -2.52015e+00  3.01756e-01
       H -5.88827e+00 -2.35657e+00  1.69943e+00
       O -2.63480e+01 -2.27762e+01  6.47621e-01
       H -2.58210e+01 -2.19688e+01  5.18980e-01
       H -2.57286e+01 -2.32517e+01  1.28422e+00
       O  1.04504e+01  6.88900e+00 -2.71609e+00
       H  9.71583e+00  6.52185e+00 -2.14095e+00
       H  9.93252e+00  7.19757e+00 -3.51161e+00
       O -7.16373e+00 -3.04615e+01 -1.72869e+01
       H -7.10708e+00 -2.95492e+01 -1.69369e+01
       H -7.96040e+00 -3.07871e+01 -1.68616e+01
       O -1.68742e+01 -3.28220e+01 -9.27230e+00
       H -1.65571e+01 -3.33235e+01 -1.00693e+01
       H -1.62905e+01 -3.20636e+01 -9.29814e+00
       O -2.32068e+01 -2.53229e+01 -1.50973e+01
       H -2.30503e+01 -2.48241e+01 -1.42099e+01
       H -2.23006e+01 -2.56960e+01 -1.52530e+01
       O  3.71386e-01 -9.94835e+00  4.39057e+00
       H -2.76246e-01 -9.64196e+00  3.77749e+00
       H -8.19295e-02 -9.95320e+00  5.26574e+00
       O -6.56093e+00 -1.67996e+01 -1.40454e+01
       H -6.67161e+00 -1.77191e+01 -1.42632e+01
       H -7.17654e+00 -1.66741e+01 -1.32789e+01
       O -1.42702e+01 -2.79957e+01 -1.55782e+01
       H -1.52624e+01 -2.82201e+01 -1.57933e+01
       H -1.42121e+01 -2.85597e+01 -1.47832e+01
       O  2.40648e+00 -1.14407e+01 -1.11554e+01
       H  2.65243e+00 -1.05412e+01 -1.08272e+01
       H  1.88378e+00 -1.12645e+01 -1.19242e+01
       O -9.55744e+00 -2.81153e+01 -1.99080e+01
       H -9.03129e+00 -2.87104e+01 -2.04059e+01
       H -8.90197e+00 -2.74841e+01 -1.95020e+01
       O -2.15074e+01 -1.78564e+01 -1.84284e+01
       H -2.21643e+01 -1.83147e+01 -1.89722e+01
       H -2.21245e+01 -1.73936e+01 -1.78349e+01
       O -2.98657e+01  7.01679e-02 -3.57014e+00
       H -2.91763e+01 -2.72239e-01 -2.98477e+00
       H -2.99142e+01 -6.01493e-01 -4.22517e+00
       O -9.22314e+00 -2.59074e+00  2.16511e+00
       H -8.44602e+00 -2.85640e+00  1.60149e+00
       H -9.28697e+00 -1.66542e+00  1.91127e+00
       O -2.48368e+01 -8.88749e+00 -1.05396e+01
       H -2.40626e+01 -8.44729e+00 -1.10593e+01
       H -2.52996e+01 -8.04814e+00 -1.02589e+01
       O -1.17348e+00  3.28810e+00 -2.73060e+01
       H -1.65589e+00  3.02647e+00 -2.81568e+01
       H -1.86808e+00  3.90075e+00 -2.69145e+01
       O -2.21354e+01 -3.03734e+00 -5.08946e+00
       H -2.16259e+01 -3.49351e+00 -4.37270e+00
       H -2.29844e+01 -2.97897e+00 -4.69583e+00
       O -2.71104e+01 -2.04216e+01 -3.99537e+00
       H -2.80518e+01 -2.02679e+01 -4.36081e+00
       H -2.73891e+01 -2.04157e+01 -3.05512e+00
       O  3.49603e+00  1.15530e+01  9.45868e+00
       H  3.75700e+00  1.23279e+01  9.94628e+00
       H  2.49434e+00  1.15758e+01  9.65597e+00
       O -1.51287e+01 -8.58050e+00 -1.38609e+00
       H -1.55477e+01 -9.49691e+00 -1.31510e+00
       H -1.45003e+01 -8.65534e+00 -2.11793e+00
       O -2.48181e+00 -1.88400e+01 -3.14587e+01
       H -1.98167e+00 -1.82338e+01 -3.09231e+01
       H -2.73998e+00 -1.81960e+01 -3.21863e+01
       O  1.54401e+00 -7.87964e+00 -4.75245e+00
       H  8.70242e-01 -7.60925e+00 -4.18672e+00
       H  2.30459e+00 -7.31069e+00 -4.60351e+00
       O  2.21974e+00 -1.78130e+01 -5.61948e-01
       H  1.38153e+00 -1.76638e+01 -8.69479e-02
       H  2.19000e+00 -1.87440e+01 -7.04078e-01
       O -2.90286e+01 -1.85317e+01 -1.00568e+01
       H -2.93364e+01 -1.91689e+01 -1.07713e+01
       H -2.80655e+01 -1.84378e+01 -1.02029e+01
       O -1.34846e+01 -8.83210e+00 -2.73711e+01
       H -1.35040e+01 -8.57269e+00 -2.82598e+01
       H -1.26510e+01 -9.23533e+00 -2.74131e+01
       O -1.84996e+01 -1.75273e+01 -5.35006e+00
       H -1.81089e+01 -1.66914e+01 -5.01007e+00
       H -1.77468e+01 -1.78613e+01 -5.90906e+00
       O -6.80763e+00 -2.32372e+01 -2.16723e+01
       H -7.05442e+00 -2.36320e+01 -2.07809e+01
       H -7.68509e+00 -2.33984e+01 -2.21589e+01
       O -2.16198e+01  1.30048e+01 -2.52321e+01
       H -2.09560e+01  1.31162e+01 -2.45096e+01
       H -2.18133e+01  1.20403e+01 -2.52856e+01
       O  1.25992e+01 -1.83660e+01 -2.78047e+01
       H  1.31016e+01 -1.76358e+01 -2.74198e+01
       H  1.20007e+01 -1.87324e+01 -2.70667e+01
       O -1.30822e+01 -3.67941e+01 -1.46204e+01
       H -1.37727e+01 -3.67360e+01 -1.39233e+01
       H -1.32166e+01 -3.76906e+01 -1.50035e+01
       O -2.12745e+01 -5.40029e+00  6.56714e+00
       H -2.11632e+01 -5.85773e+00  7.41533e+00
       H -2.07794e+01 -4.53520e+00  6.71759e+00
       O -4.03195e+01 -3.59088e+01 -1.93804e+01
       H -4.00461e+01 -3.68017e+01 -1.92670e+01
       H -4.10645e+01 -3.59401e+01 -2.00223e+01
       O -4.14759e+00 -1.54293e+01 -1.99313e+01
       H -3.27658e+00 -1.50393e+01 -2.00951e+01
       H -4.23985e+00 -1.52138e+01 -1.89905e+01
       O -4.43311e+01 -3.53134e+01 -2.48584e+01
       H -4.42935e+01 -3.44042e+01 -2.52952e+01
       H -4.38699e+01 -3.50947e+01 -2.39715e+01
       O -5.29863e+01 -2.15255e+01 -6.56809e+00
       H -5.21152e+01 -2.15787e+01 -6.15111e+00
       H -5.33315e+01 -2.08791e+01 -6.00286e+00
       O  2.92380e+00 -3.70151e+00  5.27416e+00
       H  2.69822e+00 -3.04725e+00  4.54141e+00
       H  3.23866e+00 -3.15535e+00  6.01924e+00
       O -4.91888e+00 -2.79915e+01 -4.56410e+01
       H -5.50955e+00 -2.77290e+01 -4.49067e+01
       H -4.14749e+00 -2.83449e+01 -4.51215e+01
       O -6.04474e+00 -2.31473e+01 -1.70501e+01
       H -5.69496e+00 -2.30144e+01 -1.79193e+01
       H -5.36236e+00 -2.28088e+01 -1.64460e+01
       O -3.38317e+00 -1.44714e+01  2.23573e+00
       H -3.14627e+00 -1.35692e+01  2.59158e+00
       H -2.97725e+00 -1.44107e+01  1.35423e+00
       O -5.59483e+01 -2.52019e+01 -3.08343e+00
       H -5.58557e+01 -2.42477e+01 -2.75736e+00
       H -5.67941e+01 -2.54696e+01 -2.75136e+00
       O -1.87763e+01 -1.70675e+01  6.62603e-01
       H -1.84934e+01 -1.71712e+01 -2.48859e-01
       H -1.79140e+01 -1.70117e+01  1.13077e+00
       O -2.81477e+01  2.04535e+01 -1.15489e+01
       H -2.82585e+01  2.12748e+01 -1.10418e+01
       H -2.77251e+01  1.99433e+01 -1.08208e+01
       O  1.10936e+01  3.19585e+00 -1.37603e+00
       H  1.09572e+01  3.68148e+00 -5.35162e-01
       H  1.02066e+01  3.35836e+00 -1.66418e+00
       O -1.45788e+01  6.39062e+00  8.09771e+00
       H -1.51907e+01  6.70148e+00  8.80546e+00
       H -1.47485e+01  7.02898e+00  7.41619e+00
       O -2.96203e+01 -1.42688e+01 -5.18339e+00
       H -2.98909e+01 -1.48858e+01 -4.44366e+00
       H -2.87403e+01 -1.40144e+01 -4.90425e+00
       O -4.90633e+01 -2.26088e+01  1.08488e+01
       H -4.95272e+01 -2.26432e+01  1.16659e+01
       H -4.97854e+01 -2.23923e+01  1.01867e+01
       O -6.26813e+00  1.17103e+01 -1.86152e+01
       H -6.32936e+00  1.11159e+01 -1.78412e+01
       H -6.76225e+00  1.24358e+01 -1.81785e+01
       O -1.27532e+01 -2.61518e+01 -3.74686e+01
       H -1.19085e+01 -2.63182e+01 -3.69607e+01
       H -1.29065e+01 -2.70911e+01 -3.77326e+01
       O -9.96632e+00 -2.31051e+01 -7.64363e-01
       H -9.57517e+00 -2.28997e+01 -1.64892e+00
       H -9.21366e+00 -2.35815e+01 -4.26814e-01
       O -1.35710e+01  3.34491e+00 -2.71101e+01
       H -1.31882e+01  3.99230e+00 -2.65339e+01
       H -1.42710e+01  3.90974e+00 -2.75765e+01
       O -9.77074e+00 -1.16000e+00 -1.14408e+01
       H -1.02114e+01 -1.73945e+00 -1.07942e+01
       H -9.70631e+00 -1.77608e+00 -1.21363e+01
       O -1.87061e+00 -9.60953e+00  2.59630e+00
       H -1.42965e+00 -1.00593e+01  1.87612e+00
       H -2.11508e+00 -8.74656e+00  2.18930e+00
       O -3.48224e+01 -1.84233e+00 -2.81410e+01
       H -3.39668e+01 -1.37889e+00 -2.81265e+01
       H -3.54481e+01 -1.32286e+00 -2.75926e+01
       O -4.12948e+01 -1.87681e+01 -1.22483e+01
       H -4.19120e+01 -1.80351e+01 -1.21583e+01
       H -4.04743e+01 -1.82277e+01 -1.21889e+01
       O -3.00178e+01 -2.82296e+01 -1.32935e+01
       H -2.93776e+01 -2.86320e+01 -1.38642e+01
       H -2.94052e+01 -2.77501e+01 -1.26923e+01
       O -1.67588e+01 -1.22700e+01 -4.38745e+01
       H -1.65085e+01 -1.18418e+01 -4.29959e+01
       H -1.71289e+01 -1.31305e+01 -4.36631e+01
       O -1.50964e+01 -4.16020e+00 -4.96592e+00
       H -1.44340e+01 -3.96092e+00 -5.68161e+00
       H -1.51063e+01 -3.27740e+00 -4.61385e+00
       O -3.00611e+01 -2.81426e+01 -3.89334e+01
       H -2.95135e+01 -2.87344e+01 -3.94491e+01