11135
# CELL(abcABC):   47.46614    47.46614    47.46614    90.00000    90.00000    90.00000  Step:       10000  Bead:       0 positions{angstrom}  cell{angstrom}
       C -7.03030e+00 -4.23062e+00  4.21287e+00
       H -7.93687e+00 -4.40732e+00  3.70128e+00
       H -7.08925e+00 -4.01235e+00  5.27811e+00
       H -6.48658e+00 -5.29367e+00  4.10621e+00
       C -6.23236e+00 -3.28428e+00  3.29427e+00
       O -5.30931e+00 -3.69698e+00  2.61877e+00
       N -6.55861e+00 -1.98305e+00  3.28579e+00
       H -7.28255e+00 -1.65189e+00  3.85217e+00
       C -5.60271e+00 -9.94910e-01  2.64870e+00
       H -5.21034e+00 -1.51418e+00  1.81740e+00
       C -6.33136e+00  2.19737e-01  2.15590e+00
       H -5.64998e+00  8.84525e-01  1.63587e+00
       H -6.78318e+00  8.81094e-01  3.00002e+00
       C -7.52525e+00 -9.20576e-02  1.29013e+00
       H -8.32733e+00 -9.90491e-02  1.93996e+00
       H -7.36939e+00 -1.04382e+00  7.82925e-01
       C -7.74988e+00  9.93821e-01  2.69085e-01
       H -6.86390e+00  1.08632e+00 -4.00369e-01
       H -7.81927e+00  2.02988e+00  6.71992e-01
       C -8.85019e+00  7.85203e-01 -7.80265e-01
       H -9.13230e+00  1.77136e+00 -1.22066e+00
       H -9.78187e+00  4.62563e-01 -2.87692e-01
       N -8.47414e+00 -1.89004e-01 -1.83481e+00
       H -7.44298e+00 -1.39156e-01 -2.05417e+00
       H -8.93507e+00  5.86325e-02 -2.75066e+00
       H -8.67097e+00 -1.11877e+00 -1.46155e+00
       C -4.40639e+00 -6.12240e-01  3.58831e+00
       O -4.52773e+00  1.12142e-01  4.59137e+00
       N -3.19283e+00 -1.02350e+00  3.17724e+00
       H -2.99966e+00 -1.66082e+00  2.45365e+00
       H -2.51045e+00 -9.55977e-01  3.79694e+00
       O -1.17433e+01 -7.76861e+00 -2.44200e+01
       H -1.17891e+01 -7.16953e+00 -2.36297e+01
       H -1.20720e+01 -8.59679e+00 -2.40245e+01
       O -1.77876e+01 -6.56550e+00 -4.63897e+00
       H -1.84841e+01 -5.91479e+00 -4.36697e+00
       H -1.79338e+01 -7.25088e+00 -3.95217e+00
       O  1.34838e+01 -1.15236e+01 -5.76788e+00
       H  1.31303e+01 -1.23486e+01 -6.26827e+00
       H  1.26847e+01 -1.12452e+01 -5.38120e+00
       O -2.00734e+01 -1.40215e+01 -2.59639e+01
       H -2.06670e+01 -1.46155e+01 -2.64614e+01
       H -1.92634e+01 -1.42761e+01 -2.64203e+01
       O -1.17928e+01 -9.61065e+00 -1.06920e+01
       H -1.09525e+01 -9.18810e+00 -1.05867e+01
       H -1.15036e+01 -1.04323e+01 -1.11241e+01
       O  2.44615e+01 -1.92938e+01  1.94933e+01
       H  2.35950e+01 -1.94566e+01  1.98553e+01
       H  2.46104e+01 -2.00972e+01  1.89421e+01
       O -1.62328e+01 -8.42448e+00 -3.64182e+00
       H -1.52807e+01 -8.53956e+00 -3.48229e+00
       H -1.62043e+01 -7.45257e+00 -3.44304e+00
       O  1.93063e+01 -2.61407e+01 -1.54829e+01
       H  1.84222e+01 -2.58514e+01 -1.52526e+01
       H  1.91362e+01 -2.67463e+01 -1.62226e+01
       O -1.15141e+01 -2.35916e+01 -9.05991e-01
       H -1.22082e+01 -2.36907e+01 -1.57793e+00
       H -1.15596e+01 -2.26435e+01 -7.29713e-01
       O  1.35874e+01 -2.16341e+01 -1.10966e+01
       H  1.39469e+01 -2.07303e+01 -1.12121e+01
       H  1.29246e+01 -2.16612e+01 -1.18228e+01
       O -3.00443e+01 -1.43952e+01 -4.91195e+00
       H -2.95389e+01 -1.43934e+01 -5.74465e+00
       H -3.05294e+01 -1.35298e+01 -4.90425e+00
       O  4.55627e+00 -2.59893e+01 -5.59963e-01
       H  4.97947e+00 -2.68453e+01 -5.29443e-01
       H  5.33674e+00 -2.54575e+01 -9.08159e-01
       O  5.66330e+00  1.66261e+01 -1.08511e+01
       H  5.83871e+00  1.66622e+01 -1.18133e+01
       H  6.10579e+00  1.57933e+01 -1.06281e+01
       O -3.15445e+01 -8.64596e+00 -5.20410e+00
       H -3.19119e+01 -9.38005e+00 -5.71971e+00
       H -3.06223e+01 -8.65913e+00 -5.57130e+00
       O -4.09952e+00 -1.86283e+01 -2.24181e+01
       H -4.53373e+00 -1.77440e+01 -2.26867e+01
       H -3.92661e+00 -1.85237e+01 -2.14056e+01
       O -2.88701e+00 -1.09561e+01 -9.50739e+00
       H -2.92415e+00 -1.00385e+01 -9.29242e+00
       H -1.93083e+00 -1.11549e+01 -9.87019e+00
       O -1.24788e+01 -2.06875e+01 -2.60266e+00
       H -1.29092e+01 -2.13419e+01 -3.11110e+00
       H -1.29205e+01 -1.98195e+01 -2.86839e+00
       O -1.89819e-01 -1.98541e+01 -2.53794e+01
       H -1.10109e+00 -2.01481e+01 -2.51933e+01
       H  2.77865e-01 -2.07280e+01 -2.53927e+01
       O -4.56934e+00 -1.81991e+01 -1.05807e+01
       H -4.85559e+00 -1.77731e+01 -9.78486e+00
       H -5.39216e+00 -1.87629e+01 -1.08009e+01
       O -8.87685e-01  1.68296e+01 -8.07107e-01
       H -8.26628e-01  1.78027e+01 -9.74422e-01
       H -2.96385e-01  1.64498e+01 -1.42852e+00
       O -2.22831e+01 -6.28815e+00 -6.27498e+00
       H -2.22804e+01 -6.44636e+00 -7.20794e+00
       H -2.15926e+01 -6.89157e+00 -5.96288e+00
       O -2.67551e+01 -7.63872e+00 -1.20887e+01
       H -2.61709e+01 -8.29487e+00 -1.17133e+01
       H -2.62942e+01 -7.42837e+00 -1.29555e+01
       O  2.43454e+01 -2.04949e+01 -2.09882e+01
       H  2.46040e+01 -2.03722e+01 -2.00365e+01
       H  2.51022e+01 -2.00212e+01 -2.13828e+01
       O -1.36328e+01 -1.69653e+01 -1.37825e+01
       H -1.31938e+01 -1.73063e+01 -1.29965e+01
       H -1.35642e+01 -1.77337e+01 -1.43055e+01
       O -5.83885e+00 -1.97946e+01 -1.38145e+01
       H -5.64880e+00 -2.07766e+01 -1.39698e+01
       H -6.18146e+00 -1.97703e+01 -1.29091e+01
       O -1.56225e+01 -1.05177e+01  2.38563e+01
       H -1.64999e+01 -1.04037e+01  2.41263e+01
       H -1.57672e+01 -1.12265e+01  2.31830e+01
       O -6.40879e+00 -3.22939e+01 -2.18477e+01
       H -7.18246e+00 -3.28895e+01 -2.20472e+01
       H -6.58435e+00 -3.20176e+01 -2.09685e+01
       O -4.57825e+00 -3.34219e+00  1.91090e+01
       H -4.03763e+00 -2.52907e+00  1.90152e+01
       H -3.88433e+00 -3.94698e+00  1.94657e+01
       O -1.47017e+01  9.36406e-01  1.84753e+00
       H -1.45359e+01  1.46060e+00  1.01756e+00
       H -1.39397e+01  3.26777e-01  1.83654e+00
       O -2.63125e+01 -8.39685e+00  2.44037e+01
       H -2.70588e+01 -8.08654e+00  2.49931e+01
       H -2.68075e+01 -8.62160e+00  2.36147e+01
       O -2.02970e+01 -1.68234e+01 -1.71969e+01
       H -2.09588e+01 -1.65698e+01 -1.64746e+01
       H -2.03457e+01 -1.60056e+01 -1.77479e+01
       O  1.95289e+00 -1.19284e+01 -2.06540e+01
       H  2.81546e+00 -1.23579e+01 -2.07932e+01
       H  1.63647e+00 -1.24791e+01 -1.98801e+01
       O  9.02835e-01 -7.35618e+00 -2.48565e+01
       H  1.76099e+00 -7.83437e+00 -2.46385e+01
       H  2.12152e-01 -8.02014e+00 -2.46924e+01
       O -7.31656e+00 -2.46903e+01  6.58948e+00
       H -8.08316e+00 -2.42880e+01  6.24169e+00
       H -7.63911e+00 -2.52938e+01  7.23238e+00
       O -1.06275e+01 -1.55035e+01 -1.34695e+01
       H -1.07421e+01 -1.61573e+01 -1.40702e+01
       H -1.00275e+01 -1.49499e+01 -1.40418e+01
       O -2.57119e+01 -2.16713e+01  2.44827e+01
       H -2.64687e+01 -2.10450e+01  2.44395e+01
       H -2.56849e+01 -2.18816e+01  2.54313e+01
       O -1.76714e+01 -2.56724e+01 -3.04281e+00
       H -1.85707e+01 -2.59834e+01 -3.25922e+00
       H -1.74763e+01 -2.51037e+01 -3.79258e+00
       O -2.33448e-01 -3.49908e+00 -2.78815e+01
       H -1.32885e-02 -4.49607e+00 -2.79624e+01
       H -3.15979e-01 -3.33811e+00 -2.69182e+01
       O -1.25995e+01  2.48452e+00 -1.09279e+01
       H -1.34734e+01  2.02046e+00 -1.10513e+01
       H -1.23679e+01  2.13449e+00 -1.00544e+01
       O -1.84953e+00 -2.24917e+01 -1.45159e+01
       H -1.02027e+00 -2.25831e+01 -1.50788e+01
       H -2.14909e+00 -2.33739e+01 -1.43274e+01
       O  1.70295e+01 -1.84410e+01 -9.75696e+00
       H  1.61768e+01 -1.87695e+01 -9.33748e+00
       H  1.73920e+01 -1.93005e+01 -9.89343e+00
       O -1.41011e+01 -4.76560e+00 -3.47577e+01
       H -1.43498e+01 -4.14463e+00  1.34225e+01
       H -1.37281e+01 -4.10074e+00 -3.53672e+01
       O  1.27250e+01 -2.52819e+01 -1.23727e+01
       H  1.33663e+01 -2.45890e+01 -1.25990e+01
       H  1.23706e+01 -2.55737e+01 -1.32558e+01
       O -1.96744e+01 -1.11716e+01 -1.89169e+01
       H -2.00409e+01 -1.10918e+01 -1.98001e+01
       H -2.03691e+01 -1.06895e+01 -1.83618e+01
       O -2.73068e+01 -2.27228e+01 -1.37278e+01
       H -2.77336e+01 -2.27605e+01 -1.45180e+01
       H -2.66082e+01 -2.34348e+01 -1.39028e+01
       O -5.84884e+00 -1.43713e+01  7.65333e+00
       H -5.22521e+00 -1.50219e+01  8.15798e+00
       H -5.31578e+00 -1.36079e+01  7.71428e+00
       O -1.19562e+01 -2.03259e+01  4.47606e+00
       H -1.22528e+01 -2.09915e+01  3.84731e+00
       H -1.09701e+01 -2.02712e+01  4.31422e+00
       O  1.05456e+01 -1.09975e+01 -1.05456e+01
       H  1.04363e+01 -1.16441e+01 -9.79594e+00
       H  1.00425e+01 -1.13002e+01 -1.12811e+01
       O  7.37479e+00 -6.81642e+00 -1.29534e+01
       H  7.22225e+00 -7.73481e+00 -1.27123e+01
       H  6.64489e+00 -6.63881e+00 -1.36063e+01
       O -2.40834e+01  3.50107e+00 -1.28344e+01
       H -2.37036e+01  3.34915e+00 -1.37138e+01
       H -2.33777e+01  3.19453e+00 -1.21983e+01
       O -1.36962e+01 -4.67660e+00 -2.70905e+01
       H -1.34911e+01 -4.74595e+00 -2.61327e+01
       H -1.45056e+01 -4.08027e+00 -2.70820e+01
       O -1.52609e+01 -1.19795e+01 -1.71023e+01
       H -1.52983e+01 -1.28104e+01 -1.76781e+01
       H -1.46847e+01 -1.13389e+01 -1.75175e+01
       O -1.18481e+01 -1.08831e+01 -2.69032e+01
       H -1.17999e+01 -9.88730e+00 -2.69504e+01
       H -1.09180e+01 -1.11377e+01 -2.72760e+01
       O -8.85869e+00 -3.51260e+00 -8.53430e+00
       H -8.68174e+00 -4.47984e+00 -8.59820e+00
       H -7.99516e+00 -3.19189e+00 -8.90232e+00
       O  3.08581e+00 -9.09916e+00 -1.49922e+01
       H  2.61934e+00 -8.77653e+00 -1.41536e+01
       H  2.42745e+00 -9.59246e+00 -1.54519e+01
       O -1.51079e+01 -1.34340e+01  2.19748e+00
       H -1.57915e+01 -1.27439e+01  2.13758e+00
       H -1.46812e+01 -1.32598e+01  3.05272e+00
       O -1.66601e+01 -4.46700e+00  9.01118e-01
       H -1.58020e+01 -3.95892e+00  7.15598e-01
       H -1.70567e+01 -4.59741e+00 -1.69466e-02
       O -2.87349e+00 -1.52329e+01 -1.89073e+01
       H -3.81128e+00 -1.50083e+01 -1.85241e+01
       H -3.09096e+00 -1.50029e+01 -1.98754e+01
       O -1.21383e+00 -1.76217e+01 -1.33179e+01
       H -1.21147e+00 -1.77544e+01 -1.23553e+01
       H -1.70390e+00 -1.84235e+01 -1.36061e+01
       O -3.34590e+00  2.45339e+01  7.34056e+00
       H -3.96935e+00  2.51044e+01  6.84580e+00
       H -3.07084e+00  2.38715e+01  6.62197e+00
       O -9.48120e+00 -4.00982e+00 -2.48760e+01
       H -8.83991e+00 -4.13577e+00 -2.56507e+01
       H -9.62069e+00 -4.92969e+00 -2.47320e+01
       O -7.47160e+00  2.71774e+01  5.44331e+00
       H -6.71728e+00  2.77102e+01  5.18194e+00
       H -8.15582e+00  2.76143e+01  4.93390e+00
       O -7.24363e+00 -1.59791e+01 -1.02637e+01
       H -7.17228e+00 -1.53444e+01 -9.49521e+00
       H -6.71526e+00 -1.55438e+01 -1.09148e+01
       O -1.24082e+00 -1.40694e+01 -1.27327e+00
       H -2.16118e+00 -1.41335e+01 -9.26951e-01
       H -1.36401e+00 -1.31919e+01 -1.66753e+00
       O -9.19972e+00 -8.82664e+00  7.89720e+00
       H -9.20409e+00 -7.87016e+00  7.53265e+00
       H -8.76128e+00 -8.65224e+00  8.75425e+00
       O -1.10984e+01 -2.99701e+00  1.39700e+01
       H -1.04827e+01 -3.28172e+00  1.46200e+01
       H -1.18800e+01 -3.42467e+00  1.44425e+01
       O -2.12907e+01 -1.34274e+01 -1.31160e+01
       H -2.08131e+01 -1.27128e+01 -1.26553e+01
       H -2.22581e+01 -1.32082e+01 -1.30583e+01
       O  5.09614e+00 -1.68585e+01 -7.25703e+00
       H  5.44758e+00 -1.63324e+01 -7.96831e+00
       H  5.67314e+00 -1.65906e+01 -6.48569e+00
       O -1.95915e+01 -1.85790e+01 -7.72847e+00
       H -1.89052e+01 -1.86987e+01 -8.37523e+00
       H -2.04693e+01 -1.86259e+01 -8.27067e+00
       O -3.10188e+01 -2.19506e+01  2.15030e+01
       H -3.14392e+01 -2.20137e+01  2.06263e+01
       H -3.02980e+01 -2.26103e+01  2.14422e+01
       O  1.78450e+01  2.26380e+01  2.55082e+01
       H  1.85371e+01  2.22765e+01  2.61224e+01
       H  1.75918e+01  2.17138e+01  2.52042e+01
       O -1.04764e+00 -1.56214e+01 -9.50694e+00
       H -1.28505e+00 -1.64039e+01 -1.00244e+01
       H -1.96025e+00 -1.53037e+01 -9.16393e+00
       O -1.06979e+01 -1.21545e+01 -1.50396e+01
       H -1.01480e+01 -1.23600e+01 -1.42464e+01
       H -1.15551e+01 -1.24264e+01 -1.46825e+01
       O -1.54534e+01 -6.41563e+00  5.35891e+00
       H -1.53180e+01 -5.51176e+00  5.76827e+00
       H -1.64427e+01 -6.41223e+00  5.34292e+00
       O -1.40170e+01 -1.54820e+01 -2.54136e+01
       H -1.41921e+01 -1.48439e+01 -2.47079e+01
       H -1.37237e+01 -1.48095e+01 -2.61043e+01
       O -2.25020e+01 -1.22863e+01 -2.59852e+01
       H -2.28976e+01 -1.23302e+01 -2.50084e+01
       H -2.21444e+01 -1.31821e+01 -2.60724e+01
       O -4.25209e+00 -9.81267e+00 -1.28538e+01
       H -3.73251e+00 -1.05918e+01 -1.24630e+01
       H -5.14128e+00 -1.02440e+01 -1.29678e+01
       O -1.41698e+01 -1.69280e+01 -1.77231e+01
       H -1.43912e+01 -1.79389e+01 -1.75162e+01
       H -1.45187e+01 -1.65419e+01 -1.69419e+01
       O -1.54022e+01 -1.95111e+01 -1.80680e+01
       H -1.56483e+01 -2.03321e+01 -1.86292e+01
       H -1.57573e+01 -1.88160e+01 -1.86476e+01
       O -1.40859e+01 -1.45477e+01 -8.00640e+00
       H -1.32914e+01 -1.51004e+01 -7.85880e+00
       H -1.37129e+01 -1.37735e+01 -7.48104e+00
       O -1.06423e+01 -1.53489e+01 -1.08311e+01
       H -1.08704e+01 -1.52958e+01 -1.18136e+01
       H -9.71698e+00 -1.51029e+01 -1.08993e+01
       O  1.86699e+01 -1.33220e+01 -1.31168e+01
       H  1.88168e+01 -1.38279e+01 -1.22806e+01
       H  1.76308e+01 -1.33687e+01 -1.32332e+01
       O -5.07626e+00 -2.58610e+01 -5.33063e+00
       H -4.95394e+00 -2.50689e+01 -5.92117e+00
       H -4.38927e+00 -2.63616e+01 -5.88252e+00
       O -2.01438e+01 -2.41790e+01  9.63293e+00
       H -2.06357e+01 -2.33308e+01  9.66710e+00
       H -2.06497e+01 -2.46356e+01  8.89226e+00
       O -1.24248e+01 -1.02531e+01 -2.43470e+00
       H -1.29262e+01 -1.07316e+01 -3.08873e+00
       H -1.24003e+01 -9.38403e+00 -2.86410e+00
       O -1.41690e+01 -1.91349e+00 -1.48920e+01
       H -1.36830e+01 -1.20373e+00 -1.44592e+01
       H -1.46392e+01 -1.29272e+00 -1.55242e+01
       O  3.17158e+01 -1.85333e+01  1.32190e+00
       H  3.23625e+01 -1.78733e+01  1.62169e+00
       H  3.10570e+01 -1.85685e+01  2.03634e+00
       O  1.25508e+01 -1.37226e+01 -2.30355e+01
       H  1.23352e+01 -1.43693e+01 -2.37259e+01
       H  1.17257e+01 -1.33385e+01 -2.29189e+01
       O  6.95891e+00 -2.45701e+01 -1.50575e+00
       H  7.66040e+00 -2.42661e+01 -8.97205e-01
       H  6.85474e+00 -2.38626e+01 -2.10324e+00
       O -2.02106e+01 -1.51680e+01 -2.35415e+01
       H -1.97655e+01 -1.45180e+01 -2.29248e+01
       H -2.00704e+01 -1.47639e+01 -2.44212e+01
       O  5.69269e-01 -1.16253e+01 -1.21307e+01
       H  6.38094e-02 -1.15214e+01 -1.13064e+01
       H  4.73319e-01 -1.25940e+01 -1.23601e+01
       O  4.56950e+00 -5.83170e+00 -1.16211e+01
       H  5.28575e+00 -5.25491e+00 -1.13236e+01
       H  4.34060e+00 -5.45433e+00 -1.24713e+01
       O -9.80230e+00 -8.18560e+00 -1.34213e+00
       H -9.17213e+00 -7.52196e+00 -1.59040e+00
       H -1.05426e+01 -7.86660e+00 -1.87713e+00
       O -1.43547e+01  1.40101e+01 -1.07543e+01
       H -1.43471e+01  1.36368e+01 -1.16080e+01
       H -1.36460e+01  1.34216e+01 -1.03756e+01
       O -1.54581e+00 -1.32994e+01 -2.38436e+01
       H -7.91201e-01 -1.36315e+01 -2.42682e+01
       H -1.07297e+00 -1.30284e+01 -2.30275e+01
       O -1.96510e+01 -1.20013e+01  2.32627e+01
       H -1.99091e+01 -1.11585e+01  2.28468e+01
       H -1.99946e+01 -1.26310e+01  2.25564e+01
       O  1.90208e+01 -1.47410e+01  3.67830e+01
       H  1.96882e+01 -1.42967e+01  3.73441e+01
       H  1.91933e+01 -1.56886e+01  3.68291e+01
       O -7.85333e+00 -1.05328e+01 -1.80211e+01
       H -8.19966e+00 -9.96232e+00 -1.72897e+01
       H -8.43147e+00 -1.13285e+01 -1.80206e+01
       O -1.71073e+01 -1.29637e+01 -1.98704e+01
       H -1.65709e+01 -1.30540e+01 -2.06806e+01
       H -1.64854e+01 -1.35105e+01 -1.93755e+01
       O -2.48001e+01 -8.77789e+00  2.66274e+01
       H -2.55020e+01 -8.51625e+00  2.60034e+01
       H -2.41262e+01 -8.26295e+00  2.61630e+01
       O -1.12820e+01 -1.33152e+01 -2.44719e+01
       H -1.04124e+01 -1.36951e+01 -2.41188e+01
       H -1.19340e+01 -1.36871e+01 -2.38478e+01
       O -8.96280e+00 -1.43018e+01 -2.34912e+01
       H -8.44590e+00 -1.43156e+01 -2.43702e+01
       H -8.38961e+00 -1.37563e+01 -2.28715e+01
       O -7.54819e+00  2.10458e+01 -8.44278e+00
       H -6.68666e+00  2.12812e+01 -8.84096e+00
       H -8.13269e+00  2.17513e+01 -8.74651e+00
       O -1.37657e+01 -3.16076e-02 -6.34807e+00
       H -1.36951e+01  6.12404e-01 -5.57298e+00
       H -1.36955e+01 -8.91283e-01 -5.89139e+00
       O -8.44947e+00 -1.10474e+01  6.24116e-01
       H -8.25291e+00 -1.06509e+01  1.51760e+00
       H -7.55812e+00 -1.13734e+01  3.62728e-01
       O -5.63755e+00 -2.07390e+01 -2.36341e+01
       H -6.23398e+00 -2.03423e+01 -2.43253e+01
       H -5.02377e+00 -1.99981e+01 -2.34939e+01
       O  1.35591e+01 -8.43385e-01 -1.45154e+01
       H  1.27004e+01 -9.46827e-01 -1.49681e+01
       H  1.37496e+01  3.75996e-02 -1.48766e+01
       O -1.61565e+01 -3.36647e+00  2.01338e+01
       H -1.65848e+01 -2.98998e+00  1.93463e+01
       H -1.65901e+01 -2.75022e+00  2.07252e+01
       O  2.17037e+01 -2.00381e+01  1.64609e+01
       H  2.13744e+01 -2.00517e+01  1.73971e+01
       H  2.16675e+01 -1.90540e+01  1.63516e+01
       O -2.36019e+01 -1.15018e+01  1.64636e+01
       H -2.44209e+01 -1.12889e+01  1.69399e+01
       H -2.32160e+01 -1.22614e+01  1.68832e+01
       O -1.51049e+01  1.90794e+01 -9.32899e+00
       H -1.49808e+01  1.81576e+01 -9.02929e+00
       H -1.46619e+01  1.90656e+01 -1.02681e+01
       O -1.39146e+01 -1.15118e+01  1.80099e+01
       H -1.47250e+01 -1.19595e+01  1.83816e+01
       H -1.31635e+01 -1.20871e+01  1.83811e+01
       O  2.38836e+01 -2.16946e+01  1.42486e+01
       H  2.33414e+01 -2.19071e+01  1.50280e+01
       H  2.36669e+01 -2.07374e+01  1.41271e+01
       O  1.01895e+01 -2.68726e+01 -1.92152e+01
       H  1.02622e+01 -2.61379e+01 -1.85509e+01
       H  9.91584e+00 -2.76328e+01 -1.86671e+01
       O -9.65322e+00 -1.58557e+01 -3.17373e+00
       H -1.05804e+01 -1.57030e+01 -3.02268e+00
       H -9.76443e+00 -1.61923e+01 -4.12810e+00
       O  6.97402e+00 -1.75103e+01 -2.88385e+00
       H  6.25264e+00 -1.82532e+01 -2.79908e+00
       H  6.65978e+00 -1.68959e+01 -2.17460e+00
       O -9.53082e+00  1.83493e+01 -2.66522e+01
       H -8.67991e+00  1.77917e+01  2.09214e+01
       H -9.16606e+00  1.89815e+01  2.01396e+01
       O  1.31404e+01 -1.42919e+01  2.14298e+01
       H  1.29721e+01 -1.49217e+01 -2.53269e+01
       H  1.24854e+01 -1.47283e+01 -2.66460e+01
       O  5.85355e-01  1.33122e+01  3.75463e+00
       H  3.56184e-01  1.23406e+01  3.58654e+00
       H -1.58154e-01  1.37575e+01  3.30897e+00
       O -1.29092e+01  2.42891e+01  1.89440e+01
       H -1.38782e+01  2.43690e+01  1.90350e+01
       H -1.27872e+01  2.50249e+01  1.83438e+01
       O  2.70333e+01 -5.88689e+00  3.64945e+01
       H  2.74808e+01 -5.60807e+00  3.56610e+01
       H  2.76625e+01 -6.50106e+00  3.68298e+01
       O  2.08798e+01 -1.46477e+01 -1.43918e+01
       H  2.13605e+01 -1.39458e+01 -1.48262e+01
       H  2.01386e+01 -1.41139e+01 -1.40708e+01
       O -1.34385e+00 -1.20934e+01 -1.66674e+01
       H -2.10398e+00 -1.25201e+01 -1.63398e+01
       H -8.51671e-01 -1.28449e+01 -1.70155e+01
       O -1.00818e+01 -1.67227e+01 -5.69412e+00
       H -1.02275e+01  3.10118e+01 -6.61121e+00
       H -1.09397e+01 -1.71953e+01 -5.58575e+00
       O  2.73857e+01 -3.25936e+00  2.43997e+01
       H  2.70306e+01 -2.66259e+00  2.36913e+01
       H  2.70740e+01 -4.14951e+00  2.40460e+01
       O -2.44297e+01  4.05760e+00 -5.05472e+00
       H -2.49244e+01  4.19289e+00 -4.23692e+00
       H -2.41829e+01  3.15027e+00 -5.04927e+00
       O  1.93474e+01 -8.34112e+00 -1.44293e+01
       H  1.98159e+01 -8.48742e+00 -1.36463e+01
       H  1.86579e+01 -9.08174e+00 -1.44499e+01
       O -1.13801e+01 -1.47620e+01  2.69623e+01
       H -1.18472e+01 -1.45796e+01  2.77820e+01
       H -1.15990e+01 -1.39794e+01  2.64412e+01
       O -1.41350e+01 -1.02970e+01 -2.82738e-01
       H -1.45735e+01 -1.04810e+01 -1.12661e+00
       H -1.34728e+01 -9.77102e+00 -7.07904e-01
       O  1.23609e+00 -1.98977e+01 -1.44739e+01
       H  2.08658e+00 -1.99563e+01 -1.39849e+01
       H  1.31176e+00 -1.89899e+01 -1.49035e+01
       O -1.76425e+01 -6.35026e+00 -1.15735e+01
       H -1.66653e+01 -6.25001e+00 -1.14523e+01
       H -1.77249e+01 -7.28938e+00 -1.15918e+01
       O -2.07036e+01 -1.85320e+01  2.05991e+01
       H -2.16142e+01 -1.87008e+01  2.02569e+01
       H -2.07944e+01 -1.82629e+01  2.15628e+01
       O  2.36043e+00 -3.37221e+01 -1.74356e+00
       H  2.73419e+00 -3.38543e+01 -8.54604e-01
       H  1.54714e+00 -3.32804e+01 -1.50091e+00
       O -1.08770e+01 -1.27514e+01  1.53116e+01
       H -1.17371e+01 -1.27994e+01  1.48754e+01
       H -1.05306e+01 -1.35959e+01  1.48028e+01
       O  3.37943e+00 -3.74870e+00 -9.66554e+00
       H  3.78876e+00 -3.10999e+00 -1.02504e+01
       H  3.93399e+00 -3.51304e+00 -8.96376e+00
       O -1.31164e+01 -7.84296e+00 -1.25837e+01
       H -1.26425e+01 -8.41331e+00 -1.18695e+01
       H -1.33760e+01 -8.50784e+00 -1.32333e+01
       O  1.79965e+01 -2.30560e+01 -1.21877e+01
       H  1.87535e+01 -2.29521e+01 -1.27777e+01
       H  1.80099e+01 -2.21967e+01 -1.17392e+01
       O -1.06758e+01 -1.97095e+01 -8.29339e+00
       H -1.01415e+01 -1.90788e+01 -8.77565e+00
       H -1.01013e+01 -1.97327e+01 -7.50410e+00
       O -1.80403e+01 -1.17880e+01 -1.67905e+01
       H -1.70862e+01 -1.17999e+01 -1.68282e+01
       H -1.84930e+01 -1.16226e+01 -1.76685e+01
       O -1.97471e+00 -2.44205e+01 -2.30966e+01
       H -1.21869e+00 -2.38534e+01 -2.32840e+01
       H -2.56755e+00 -2.38761e+01 -2.26394e+01
       O  1.53660e+01 -1.96342e+01 -1.47810e+01
       H  1.60727e+01 -1.97960e+01 -1.53984e+01
       H  1.50482e+01 -2.05690e+01 -1.46217e+01
       O  1.80442e+01  2.44557e+01  1.05991e+01
       H  1.85032e+01  2.49895e+01  1.12698e+01
       H  1.77038e+01  2.51194e+01  9.97250e+00
       O -9.27838e+00 -4.17796e+00 -1.16685e+01
       H -9.64104e+00 -3.43343e+00 -1.21397e+01
       H -9.82225e+00 -4.32854e+00 -1.09092e+01
       O  1.64708e+00 -3.27898e+01 -6.96415e+00
       H  1.63593e+00  1.37803e+01 -6.59896e+00
       H  6.85053e-01 -3.26622e+01 -6.99958e+00
       O -7.01717e+00 -1.26997e+01 -2.28096e+01
       H -7.02699e+00 -1.30973e+01 -2.19534e+01
       H -6.76254e+00 -1.17180e+01 -2.27309e+01
       O -2.06573e+01 -3.22806e+01  7.42138e+00
       H -2.15227e+01 -3.19570e+01  7.72422e+00
       H -2.02924e+01 -3.16200e+01  6.78474e+00
       O -1.94764e+00  6.70916e+00 -5.15083e+00
       H -1.90262e+00  5.76160e+00 -5.31127e+00
       H -2.05860e+00  6.71765e+00 -4.20197e+00
       O -2.10717e+01 -1.02950e+01 -7.48883e+00
       H -2.06150e+01 -1.02307e+01 -6.62474e+00
       H -2.08893e+01 -1.12139e+01 -7.66454e+00
       O  2.83332e+01 -1.09020e+01  1.20183e+01
       H  2.88409e+01 -1.06639e+01  1.12869e+01
       H  2.75142e+01 -1.08336e+01  1.16069e+01
       O -7.35864e+00 -1.72402e+01  3.34491e+00
       H -7.31978e+00 -1.65344e+01  4.07347e+00
       H -7.01341e+00 -1.66725e+01  2.61070e+00
       O  1.62299e+01 -1.88469e+01 -5.22570e+00
       H  1.70642e+01 -1.84319e+01 -4.96769e+00
       H  1.56328e+01  2.93302e+01 -5.42698e+00
       O -1.15499e+01  1.68040e+01  1.41439e+00
       H -1.16104e+01  1.58681e+01  1.68745e+00
       H -1.13611e+01  1.67828e+01  4.29933e-01
       O -3.41418e+00 -7.32673e+00 -2.43376e+01
       H -4.34223e+00 -7.28079e+00 -2.39435e+01
       H -3.15814e+00 -6.45443e+00 -2.39732e+01
       O  2.43593e+01 -1.73476e+01  2.24408e+01
       H  2.45883e+01 -1.68385e+01  2.32018e+01
       H  2.40177e+01 -1.81757e+01  2.27433e+01
       O  1.24680e+01  7.27904e-02  4.66821e-01
       H  1.26399e+01 -5.27304e-01  1.30615e+00
       H  1.15707e+01  3.35642e-01  6.38244e-01
       O  1.04269e+01 -9.91845e+00 -2.44682e+01
       H  9.50288e+00 -9.76423e+00 -2.47677e+01
       H  1.01379e+01 -9.92719e+00 -2.35432e+01
       O -1.05112e+01  2.39787e+01 -5.69085e+00
       H -1.07095e+01  2.44014e+01 -6.46931e+00
       H -9.63070e+00  2.35796e+01 -5.82198e+00
       O -6.79640e+00 -1.70238e+01 -2.00083e+01
       H -7.66785e+00 -1.71818e+01 -2.04816e+01
       H -6.70088e+00 -1.60342e+01 -2.01499e+01
       O -9.68626e-01 -9.67604e+00 -1.99821e+01
       H -1.11147e+00 -9.28446e+00 -1.91286e+01
       H -5.42981e-01 -8.87798e+00 -2.04247e+01
       O -5.18845e+00 -1.05776e+01  9.42039e+00
       H -5.93857e+00 -1.11102e+01  9.00806e+00
       H -5.52251e+00 -1.00985e+01  1.01421e+01
       O -7.10151e+00 -2.01446e+01 -2.60005e+01
       H -7.75852e+00 -1.96394e+01 -2.65839e+01
       H -7.47126e+00 -2.10235e+01 -2.60215e+01
       O  9.05499e+00 -4.40168e+00 -3.02923e+01
       H  8.56188e+00 -4.97190e+00 -2.96731e+01
       H  8.67908e+00 -3.57124e+00 -2.99695e+01
       O -1.26743e+01 -8.45859e+00  1.93293e+01
       H -1.34764e+01 -8.96695e+00  1.96758e+01
       H -1.28386e+01 -8.44287e+00  1.83753e+01
       O -7.60547e+00 -1.75853e+01 -6.79157e+00
       H -8.32157e+00 -1.71795e+01 -6.33098e+00
       H -6.95022e+00 -1.77830e+01 -6.08062e+00
       O -2.26118e+01 -7.25025e+00  2.52741e+01
       H -2.31743e+01 -6.53514e+00  2.53777e+01
       H -2.17684e+01 -6.78259e+00  2.54426e+01
       O  7.62807e+00 -9.17153e+00 -7.88408e+00
       H  8.46970e+00 -8.91183e+00 -7.52695e+00
       H  7.16454e+00 -8.29456e+00 -7.60109e+00
       O -8.44130e+00  2.09451e+00 -6.41549e+00
       H -8.48614e+00  1.69108e+00 -7.38187e+00
       H -8.64296e+00  3.01256e+00 -6.53408e+00
       O -4.07351e+00  2.20958e+00 -2.76264e+01
       H -3.34527e+00  2.77090e+00 -2.73242e+01
       H -4.63517e+00  2.96960e+00 -2.79754e+01
       O -1.57041e+00 -1.82304e+01 -1.02520e+01
       H -1.45348e+00 -1.91522e+01 -9.88547e+00
       H -2.51290e+00 -1.83099e+01 -1.04724e+01
       O -3.94286e+00 -1.43368e+01 -2.40082e+01
       H -4.47153e+00 -1.40684e+01 -2.47733e+01
       H -3.09591e+00 -1.38254e+01 -2.41331e+01
       O -4.57879e+00 -6.01345e+00 -1.57013e+01
       H -4.13507e+00 -6.89836e+00 -1.55413e+01
       H -4.18296e+00 -5.42926e+00 -1.50854e+01
       O -7.25602e+00  2.51681e+01 -1.01456e+01
       H -8.14380e+00  2.56141e+01 -1.01125e+01
       H -7.59743e+00  2.42516e+01 -1.01561e+01
       O -1.96534e+00 -2.28534e+01 -6.13510e+00
       H -2.23347e+00 -2.29150e+01 -5.19574e+00
       H -2.65884e+00 -2.22762e+01 -6.51456e+00
       O -9.60521e-01  1.27298e+01 -1.20194e+01
       H -1.69424e+00  1.21826e+01 -1.16562e+01
       H -6.02267e-01  1.21274e+01 -1.26471e+01
       O -1.06612e+01 -1.74943e+01 -2.39229e+01
       H -1.00768e+01 -1.69926e+01 -2.32419e+01
       H -1.01250e+01 -1.72134e+01 -2.47594e+01
       O -2.05736e+01 -1.60645e+01 -1.40934e+01
       H -2.04380e+01 -1.64618e+01 -1.32104e+01
       H -2.02814e+01 -1.52083e+01 -1.38138e+01
       O -1.72445e+01 -2.07434e+01 -2.22268e+01
       H -1.63726e+01 -2.03768e+01 -2.21681e+01
       H -1.76671e+01 -2.01825e+01 -2.29493e+01
       O  1.01713e+01  1.98103e+01 -1.20010e+01
       H  1.04292e+01  1.89807e+01 -1.15291e+01
       H  1.04877e+01  1.96859e+01 -1.29137e+01
       O -9.19483e+00  2.11178e+01 -1.79144e+01
       H -8.90928e+00  2.08475e+01 -1.87813e+01
       H -8.36290e+00  2.11247e+01 -1.74175e+01
       O  2.24068e+01 -2.35206e+01  1.73614e+01
       H  2.20925e+01 -2.44513e+01  1.74036e+01
       H  2.19802e+01 -2.31704e+01  1.65386e+01
       O -9.44645e+00 -1.07986e+01 -2.43566e+01
       H -1.02529e+01 -1.12687e+01 -2.40679e+01
       H -9.46908e+00 -1.00710e+01 -2.37438e+01
       O  1.85699e+01  2.72549e+01 -6.27016e+00
       H  1.81958e+01  2.63823e+01 -6.45605e+00
       H  1.77680e+01  2.78560e+01 -6.38567e+00
       O -2.36305e+01 -8.87790e+00 -8.38340e+00
       H -2.32113e+01 -8.11435e+00 -8.86520e+00
       H -2.28378e+01 -9.53670e+00 -8.41280e+00
       O -3.27717e+01 -6.05361e-01 -3.65575e+00
       H -3.20486e+01 -7.94015e-02 -3.37187e+00
       H -3.32933e+01 -3.59940e-01 -2.85527e+00
       O -5.02563e+00 -5.17725e+00 -1.20002e+01
       H -4.37263e+00 -4.85185e+00 -1.27086e+01
       H -5.76792e+00 -5.10696e+00 -1.26519e+01
       O -1.29520e+01  1.02119e+01  1.86691e+01
       H -1.23073e+01  1.08308e+01  1.82464e+01
       H -1.37289e+01  1.07810e+01  1.88151e+01
       O  2.22351e+00  2.44868e+01 -7.30021e+00
       H  2.66874e+00 -2.37323e+01 -7.70959e+00
       H  1.34310e+00  2.44588e+01 -7.70498e+00
       O -2.02949e+01 -1.12605e+01 -1.19093e+01
       H -1.96177e+01 -1.12845e+01 -1.12585e+01
       H -2.00334e+01 -1.04886e+01 -1.24264e+01
       O -1.75785e+01  1.93136e+01 -1.35068e+01
       H -1.79520e+01  1.93445e+01 -1.26205e+01
       H -1.81292e+01  2.00518e+01 -1.38636e+01
       O -1.83841e+01 -1.44253e+01 -1.16537e+01
       H -1.92605e+01 -1.44893e+01 -1.12477e+01
       H -1.78961e+01 -1.42132e+01 -1.08098e+01
       O -3.25061e+00 -4.23694e+00 -1.38864e+01
       H -3.02984e+00 -3.32120e+00 -1.37254e+01
       H -2.29935e+00 -4.50236e+00 -1.39158e+01
       O -6.31464e+00 -1.00200e+01 -2.29130e+01
       H -6.38408e+00 -9.78437e+00 -2.19795e+01
       H -6.32578e+00 -9.16020e+00 -2.32833e+01
       O -5.14437e+00 -2.37817e+01 -1.73966e+01
       H -5.04327e+00 -2.29962e+01 -1.79587e+01
       H -4.61259e+00 -2.44534e+01 -1.79089e+01
       O  1.88342e+01 -1.46999e+01 -7.48491e+00
       H  1.89863e+01 -1.54843e+01 -7.95046e+00
       H  1.95989e+01 -1.41381e+01 -7.69271e+00
       O -1.17919e+01 -5.95180e+00 -2.22408e+01
       H -1.16349e+01 -6.83777e+00 -2.18659e+01
       H -1.08921e+01 -5.52157e+00 -2.21605e+01
       O -2.56919e+01 -1.14600e+01 -1.56918e+01
       H -2.49928e+01 -1.10013e+01 -1.52326e+01
       H -2.60464e+01 -1.06718e+01 -1.62265e+01
       O -2.05780e+00 -1.15892e+01 -6.60003e+00
       H -2.40271e+00 -1.14022e+01 -7.52052e+00