4
# CELL(abcABC): 1000.00000  1000.00000  1000.00000    90.00000    90.00000    90.00000  Step:         693  Bead:       0 positions{angstrom}  cell{angstrom}
       O -3.14775e+00  1.06797e+00  3.57220e-01
       H -4.01699e+00  9.90890e-01  7.24665e-01
       H -2.69179e+00  2.20101e-01  1.82900e-01
       H -2.71178e+00  1.90762e+00  1.07811e-01
