4
# CELL(abcABC): 1000.00000  1000.00000  1000.00000    90.00000    90.00000    90.00000  Step:           0  Bead:       0 positions{angstrom}  cell{angstrom}
       O -3.14775e+00  1.06797e+00  3.57220e-01
       H -4.01699e+00  9.90890e-01  7.24665e-01
       H -2.69179e+00  2.20101e-01  1.82900e-01
       H -2.71178e+00  1.90762e+00  1.07811e-01
4
# CELL(abcABC): 1000.00000  1000.00000  1000.00000    90.00000    90.00000    90.00000  Step:           1  Bead:       0 positions{angstrom}  cell{angstrom}
       O -3.14600e+00  1.06810e+00  3.56663e-01
       H -4.02715e+00  9.83837e-01  7.28948e-01
       H -2.69255e+00  2.20844e-01  1.84277e-01
       H -2.72868e+00  1.91188e+00  1.10994e-01
4
# CELL(abcABC): 1000.00000  1000.00000  1000.00000    90.00000    90.00000    90.00000  Step:           2  Bead:       0 positions{angstrom}  cell{angstrom}
       O -3.14433e+00  1.06787e+00  3.56139e-01
       H -4.03674e+00  9.77444e-01  7.33113e-01
       H -2.69331e+00  2.24286e-01  1.86005e-01
       H -2.74484e+00  1.91847e+00  1.13415e-01
4
# CELL(abcABC): 1000.00000  1000.00000  1000.00000    90.00000    90.00000    90.00000  Step:           3  Bead:       0 positions{angstrom}  cell{angstrom}
       O -3.14273e+00  1.06735e+00  3.55639e-01
       H -4.04361e+00  9.70431e-01  7.37849e-01
       H -2.69558e+00  2.31177e-01  1.88617e-01
       H -2.76097e+00  1.92679e+00  1.14011e-01
4
# CELL(abcABC): 1000.00000  1000.00000  1000.00000    90.00000    90.00000    90.00000  Step:           4  Bead:       0 positions{angstrom}  cell{angstrom}
       O -3.14139e+00  1.06663e+00  3.55370e-01
       H -4.04746e+00  9.62823e-01  7.39848e-01
       H -2.69788e+00  2.40275e-01  1.90848e-01
       H -2.77620e+00  1.93680e+00  1.14042e-01
4
# CELL(abcABC): 1000.00000  1000.00000  1000.00000    90.00000    90.00000    90.00000  Step:           5  Bead:       0 positions{angstrom}  cell{angstrom}
       O -3.14025e+00  1.06563e+00  3.55332e-01
       H -4.04823e+00  9.55818e-01  7.39685e-01
       H -2.70075e+00  2.50973e-01  1.93920e-01
       H -2.79067e+00  1.94891e+00  1.11745e-01
4
# CELL(abcABC): 1000.00000  1000.00000  1000.00000    90.00000    90.00000    90.00000  Step:           6  Bead:       0 positions{angstrom}  cell{angstrom}
       O -3.13936e+00  1.06469e+00  3.55543e-01
       H -4.04488e+00  9.49603e-01  7.36603e-01
       H -2.70328e+00  2.59026e-01  1.95532e-01
       H -2.80562e+00  1.96199e+00  1.09868e-01
4
# CELL(abcABC): 1000.00000  1000.00000  1000.00000    90.00000    90.00000    90.00000  Step:           7  Bead:       0 positions{angstrom}  cell{angstrom}
       O -3.13889e+00  1.06376e+00  3.55775e-01
       H -4.03634e+00  9.43820e-01  7.32981e-01
       H -2.70426e+00  2.64367e-01  1.97216e-01
       H -2.82054e+00  1.97725e+00  1.08111e-01
4
# CELL(abcABC): 1000.00000  1000.00000  1000.00000    90.00000    90.00000    90.00000  Step:           8  Bead:       0 positions{angstrom}  cell{angstrom}
       O -3.13887e+00  1.06306e+00  3.56248e-01
       H -4.02388e+00  9.38319e-01  7.27269e-01
       H -2.70195e+00  2.65493e-01  1.97368e-01
       H -2.83573e+00  1.99281e+00  1.06166e-01
4
# CELL(abcABC): 1000.00000  1000.00000  1000.00000    90.00000    90.00000    90.00000  Step:           9  Bead:       0 positions{angstrom}  cell{angstrom}
       O -3.13914e+00  1.06272e+00  3.56724e-01
       H -4.00985e+00  9.31995e-01  7.21884e-01
       H -2.69616e+00  2.63348e-01  1.97220e-01
       H -2.85116e+00  2.00666e+00  1.04153e-01
4
# CELL(abcABC): 1000.00000  1000.00000  1000.00000    90.00000    90.00000    90.00000  Step:          10  Bead:       0 positions{angstrom}  cell{angstrom}
       O -3.13955e+00  1.06260e+00  3.57383e-01
       H -3.99579e+00  9.25380e-01  7.15691e-01
       H -2.68804e+00  2.59083e-01  1.95578e-01
       H -2.86688e+00  2.01941e+00  1.01525e-01
4
# CELL(abcABC): 1000.00000  1000.00000  1000.00000    90.00000    90.00000    90.00000  Step:          11  Bead:       0 positions{angstrom}  cell{angstrom}
       O -3.13992e+00  1.06276e+00  3.58171e-01
       H -3.98346e+00  9.18901e-01  7.08977e-01
       H -2.67960e+00  2.52823e-01  1.92968e-01
       H -2.88179e+00  2.02958e+00  9.83359e-02
4
# CELL(abcABC): 1000.00000  1000.00000  1000.00000    90.00000    90.00000    90.00000  Step:          12  Bead:       0 positions{angstrom}  cell{angstrom}
       O -3.14023e+00  1.06321e+00  3.58951e-01
       H -3.97367e+00  9.11376e-01  7.03530e-01
       H -2.67040e+00  2.44950e-01  1.89043e-01
       H -2.89588e+00  2.03782e+00  9.53242e-02
4
# CELL(abcABC): 1000.00000  1000.00000  1000.00000    90.00000    90.00000    90.00000  Step:          13  Bead:       0 positions{angstrom}  cell{angstrom}
       O -3.14027e+00  1.06385e+00  3.59566e-01
       H -3.96919e+00  9.03328e-01  7.00609e-01
       H -2.65991e+00  2.38019e-01  1.85091e-01
       H -2.91019e+00  2.04269e+00  9.24395e-02
4
# CELL(abcABC): 1000.00000  1000.00000  1000.00000    90.00000    90.00000    90.00000  Step:          14  Bead:       0 positions{angstrom}  cell{angstrom}
       O -3.13997e+00  1.06456e+00  3.59957e-01
       H -3.96933e+00  8.93798e-01  7.00718e-01
       H -2.64969e+00  2.34127e-01  1.81357e-01
       H -2.92510e+00  2.04476e+00  8.98494e-02
4
# CELL(abcABC): 1000.00000  1000.00000  1000.00000    90.00000    90.00000    90.00000  Step:          15  Bead:       0 positions{angstrom}  cell{angstrom}
       O -3.13918e+00  1.06519e+00  3.59937e-01
       H -3.97704e+00  8.82650e-01  7.05518e-01
       H -2.64146e+00  2.34182e-01  1.78266e-01
       H -2.93805e+00  2.04590e+00  8.84567e-02
4
# CELL(abcABC): 1000.00000  1000.00000  1000.00000    90.00000    90.00000    90.00000  Step:          16  Bead:       0 positions{angstrom}  cell{angstrom}
       O -3.13813e+00  1.06570e+00  3.59756e-01
       H -3.98747e+00  8.70442e-01  7.11814e-01
       H -2.63509e+00  2.39243e-01  1.75792e-01
       H -2.95065e+00  2.04504e+00  8.75089e-02
4
# CELL(abcABC): 1000.00000  1000.00000  1000.00000    90.00000    90.00000    90.00000  Step:          17  Bead:       0 positions{angstrom}  cell{angstrom}
       O -3.13682e+00  1.06609e+00  3.59468e-01
       H -3.99874e+00  8.58529e-01  7.19282e-01
       H -2.63144e+00  2.48901e-01  1.72880e-01
       H -2.96380e+00  2.04096e+00  8.75339e-02
4
# CELL(abcABC): 1000.00000  1000.00000  1000.00000    90.00000    90.00000    90.00000  Step:          18  Bead:       0 positions{angstrom}  cell{angstrom}
       O -3.13547e+00  1.06627e+00  3.59147e-01
       H -4.01043e+00  8.47823e-01  7.26983e-01
       H -2.62808e+00  2.61943e-01  1.70243e-01
       H -2.97702e+00  2.03575e+00  8.75619e-02
4
# CELL(abcABC): 1000.00000  1000.00000  1000.00000    90.00000    90.00000    90.00000  Step:          19  Bead:       0 positions{angstrom}  cell{angstrom}
       O -3.13435e+00  1.06637e+00  3.58857e-01
       H -4.01914e+00  8.37853e-01  7.34357e-01
       H -2.62633e+00  2.76861e-01  1.67049e-01
       H -2.98779e+00  2.02925e+00  8.79870e-02
4
# CELL(abcABC): 1000.00000  1000.00000  1000.00000    90.00000    90.00000    90.00000  Step:          20  Bead:       0 positions{angstrom}  cell{angstrom}
       O -3.13352e+00  1.06641e+00  3.58747e-01
       H -4.02374e+00  8.29565e-01  7.38887e-01
       H -2.62564e+00  2.93087e-01  1.63885e-01
       H -2.99703e+00  2.02071e+00  8.83597e-02
4
# CELL(abcABC): 1000.00000  1000.00000  1000.00000    90.00000    90.00000    90.00000  Step:          21  Bead:       0 positions{angstrom}  cell{angstrom}
       O -3.13319e+00  1.06639e+00  3.58902e-01
       H -4.02394e+00  8.22220e-01  7.40368e-01
       H -2.62248e+00  3.09604e-01  1.61081e-01
       H -3.00533e+00  2.01193e+00  8.72319e-02
4
# CELL(abcABC): 1000.00000  1000.00000  1000.00000    90.00000    90.00000    90.00000  Step:          22  Bead:       0 positions{angstrom}  cell{angstrom}
       O -3.13342e+00  1.06627e+00  3.59397e-01
       H -4.02021e+00  8.15509e-01  7.40750e-01
       H -2.61533e+00  3.24708e-01  1.55713e-01
       H -3.01251e+00  2.00541e+00  8.43559e-02
4
# CELL(abcABC): 1000.00000  1000.00000  1000.00000    90.00000    90.00000    90.00000  Step:          23  Bead:       0 positions{angstrom}  cell{angstrom}
       O -3.13422e+00  1.06616e+00  3.60351e-01
       H -4.01150e+00  8.10781e-01  7.38567e-01
       H -2.60474e+00  3.37721e-01  1.49537e-01
       H -3.01907e+00  1.99890e+00  7.75764e-02
4
# CELL(abcABC): 1000.00000  1000.00000  1000.00000    90.00000    90.00000    90.00000  Step:          24  Bead:       0 positions{angstrom}  cell{angstrom}
       O -3.13555e+00  1.06598e+00  3.61573e-01
       H -3.99818e+00  8.06279e-01  7.34613e-01
       H -2.59101e+00  3.48864e-01  1.42355e-01
       H -3.02510e+00  1.99514e+00  6.93066e-02
4
# CELL(abcABC): 1000.00000  1000.00000  1000.00000    90.00000    90.00000    90.00000  Step:          25  Bead:       0 positions{angstrom}  cell{angstrom}
       O -3.13721e+00  1.06592e+00  3.62915e-01
       H -3.98231e+00  8.01577e-01  7.30362e-01
       H -2.57511e+00  3.56592e-01  1.34245e-01
       H -3.03050e+00  1.99302e+00  6.03625e-02
4
# CELL(abcABC): 1000.00000  1000.00000  1000.00000    90.00000    90.00000    90.00000  Step:          26  Bead:       0 positions{angstrom}  cell{angstrom}
       O -3.13906e+00  1.06597e+00  3.64359e-01
       H -3.96566e+00  7.96436e-01  7.25101e-01
       H -2.55714e+00  3.61999e-01  1.25177e-01
       H -3.03577e+00  1.99188e+00  5.17777e-02
4
# CELL(abcABC): 1000.00000  1000.00000  1000.00000    90.00000    90.00000    90.00000  Step:          27  Bead:       0 positions{angstrom}  cell{angstrom}
       O -3.14098e+00  1.06603e+00  3.65852e-01
       H -3.95057e+00  7.91737e-01  7.19802e-01
       H -2.53852e+00  3.65627e-01  1.15516e-01
       H -3.03890e+00  1.99209e+00  4.30373e-02
4
# CELL(abcABC): 1000.00000  1000.00000  1000.00000    90.00000    90.00000    90.00000  Step:          28  Bead:       0 positions{angstrom}  cell{angstrom}
       O -3.14260e+00  1.06609e+00  3.67195e-01
       H -3.94014e+00  7.84204e-01  7.15932e-01
       H -2.51998e+00  3.69645e-01  1.06431e-01
       H -3.04218e+00  1.99464e+00  3.46766e-02
4
# CELL(abcABC): 1000.00000  1000.00000  1000.00000    90.00000    90.00000    90.00000  Step:          29  Bead:       0 positions{angstrom}  cell{angstrom}
       O -3.14381e+00  1.06610e+00  3.68374e-01
       H -3.93414e+00  7.75065e-01  7.12849e-01
       H -2.50426e+00  3.74922e-01  9.82066e-02
       H -3.04468e+00  1.99827e+00  2.72765e-02
4
# CELL(abcABC): 1000.00000  1000.00000  1000.00000    90.00000    90.00000    90.00000  Step:          30  Bead:       0 positions{angstrom}  cell{angstrom}
       O -3.14448e+00  1.06600e+00  3.69275e-01
       H -3.93362e+00  7.64644e-01  7.13016e-01
       H -2.49158e+00  3.82153e-01  9.16709e-02
       H -3.04731e+00  2.00310e+00  1.93430e-02
4
# CELL(abcABC): 1000.00000  1000.00000  1000.00000    90.00000    90.00000    90.00000  Step:          31  Bead:       0 positions{angstrom}  cell{angstrom}
       O -3.14471e+00  1.06577e+00  3.69971e-01
       H -3.93700e+00  7.52151e-01  7.15682e-01
       H -2.48168e+00  3.92826e-01  8.60349e-02
       H -3.05010e+00  2.00858e+00  1.12630e-02
4
# CELL(abcABC): 1000.00000  1000.00000  1000.00000    90.00000    90.00000    90.00000  Step:          32  Bead:       0 positions{angstrom}  cell{angstrom}
       O -3.14441e+00  1.06563e+00  3.70235e-01
       H -3.94556e+00  7.35918e-01  7.20729e-01
       H -2.47485e+00  4.07036e-01  8.32506e-02
       H -3.05313e+00  2.01285e+00  4.81055e-03
4
# CELL(abcABC): 1000.00000  1000.00000  1000.00000    90.00000    90.00000    90.00000  Step:          33  Bead:       0 positions{angstrom}  cell{angstrom}
       O -3.14373e+00  1.06562e+00  3.70191e-01
       H -3.95679e+00  7.17883e-01  7.27811e-01
       H -2.47101e+00  4.22068e-01  8.25260e-02
       H -3.05655e+00  2.01599e+00 -8.49879e-04
4
# CELL(abcABC): 1000.00000  1000.00000  1000.00000    90.00000    90.00000    90.00000  Step:          34  Bead:       0 positions{angstrom}  cell{angstrom}
       O -3.14273e+00  1.06566e+00  3.70123e-01
       H -3.96728e+00  6.99501e-01  7.34415e-01
       H -2.47179e+00  4.37692e-01  8.34917e-02
       H -3.06114e+00  2.01814e+00 -7.34577e-03
4
# CELL(abcABC): 1000.00000  1000.00000  1000.00000    90.00000    90.00000    90.00000  Step:          35  Bead:       0 positions{angstrom}  cell{angstrom}
       O -3.14177e+00  1.06570e+00  3.70024e-01
       H -3.97370e+00  6.81780e-01  7.38962e-01
       H -2.47563e+00  4.54289e-01  8.60728e-02
       H -3.06618e+00  2.01862e+00 -1.28970e-02
4
# CELL(abcABC): 1000.00000  1000.00000  1000.00000    90.00000    90.00000    90.00000  Step:          36  Bead:       0 positions{angstrom}  cell{angstrom}
       O -3.14102e+00  1.06574e+00  3.69992e-01
       H -3.97610e+00  6.65524e-01  7.40964e-01
       H -2.47971e+00  4.70885e-01  8.81509e-02
       H -3.07163e+00  2.01766e+00 -1.64769e-02
4
# CELL(abcABC): 1000.00000  1000.00000  1000.00000    90.00000    90.00000    90.00000  Step:          37  Bead:       0 positions{angstrom}  cell{angstrom}
       O -3.14066e+00  1.06597e+00  3.69967e-01
       H -3.97328e+00  6.52040e-01  7.42265e-01
       H -2.48208e+00  4.84164e-01  8.93906e-02
       H -3.07780e+00  2.01416e+00 -1.86151e-02
4
# CELL(abcABC): 1000.00000  1000.00000  1000.00000    90.00000    90.00000    90.00000  Step:          38  Bead:       0 positions{angstrom}  cell{angstrom}
       O -3.14057e+00  1.06638e+00  3.70267e-01
       H -3.96659e+00  6.40581e-01  7.39755e-01
       H -2.48178e+00  4.92522e-01  8.94505e-02
       H -3.08610e+00  2.01077e+00 -2.09341e-02
4
# CELL(abcABC): 1000.00000  1000.00000  1000.00000    90.00000    90.00000    90.00000  Step:          39  Bead:       0 positions{angstrom}  cell{angstrom}
       O -3.14112e+00  1.06710e+00  3.70638e-01
       H -3.95452e+00  6.30848e-01  7.35203e-01
       H -2.47774e+00  4.95414e-01  8.92441e-02
       H -3.09351e+00  2.00612e+00 -2.20656e-02
4
# CELL(abcABC): 1000.00000  1000.00000  1000.00000    90.00000    90.00000    90.00000  Step:          40  Bead:       0 positions{angstrom}  cell{angstrom}
       O -3.14212e+00  1.06794e+00  3.70972e-01
       H -3.93853e+00  6.23422e-01  7.29394e-01
       H -2.47020e+00  4.94462e-01  8.96337e-02
       H -3.10113e+00  2.00115e+00 -2.19350e-02
4
# CELL(abcABC): 1000.00000  1000.00000  1000.00000    90.00000    90.00000    90.00000  Step:          41  Bead:       0 positions{angstrom}  cell{angstrom}
       O -3.14341e+00  1.06886e+00  3.71341e-01
       H -3.92020e+00  6.18476e-01  7.21496e-01
       H -2.45957e+00  4.90794e-01  8.97206e-02
       H -3.10974e+00  1.99518e+00 -1.99824e-02
4
# CELL(abcABC): 1000.00000  1000.00000  1000.00000    90.00000    90.00000    90.00000  Step:          42  Bead:       0 positions{angstrom}  cell{angstrom}
       O -3.14490e+00  1.06996e+00  3.71775e-01
       H -3.89950e+00  6.12690e-01  7.12369e-01
       H -2.44740e+00  4.85358e-01  9.01340e-02
       H -3.11896e+00  1.98905e+00 -1.81709e-02
4
# CELL(abcABC): 1000.00000  1000.00000  1000.00000    90.00000    90.00000    90.00000  Step:          43  Bead:       0 positions{angstrom}  cell{angstrom}
       O -3.14625e+00  1.07097e+00  3.72157e-01
       H -3.88023e+00  6.07728e-01  7.02910e-01
       H -2.43519e+00  4.80864e-01  9.13361e-02
       H -3.12900e+00  1.98233e+00 -1.59766e-02
4
# CELL(abcABC): 1000.00000  1000.00000  1000.00000    90.00000    90.00000    90.00000  Step:          44  Bead:       0 positions{angstrom}  cell{angstrom}
       O -3.14723e+00  1.07198e+00  3.72402e-01
       H -3.86408e+00  6.00942e-01  6.93802e-01
       H -2.42417e+00  4.76794e-01  9.30938e-02
       H -3.14054e+00  1.97721e+00 -1.25077e-02
4
# CELL(abcABC): 1000.00000  1000.00000  1000.00000    90.00000    90.00000    90.00000  Step:          45  Bead:       0 positions{angstrom}  cell{angstrom}
       O -3.14761e+00  1.07294e+00  3.72518e-01
       H -3.85357e+00  5.92122e-01  6.85775e-01
       H -2.41466e+00  4.73939e-01  9.53912e-02
       H -3.15459e+00  1.97372e+00 -8.62492e-03
4
# CELL(abcABC): 1000.00000  1000.00000  1000.00000    90.00000    90.00000    90.00000  Step:          46  Bead:       0 positions{angstrom}  cell{angstrom}
       O -3.14742e+00  1.07380e+00  3.72462e-01
       H -3.84910e+00  5.81216e-01  6.79429e-01
       H -2.40810e+00  4.72837e-01  9.87278e-02
       H -3.16867e+00  1.97204e+00 -4.71547e-03
4
# CELL(abcABC): 1000.00000  1000.00000  1000.00000    90.00000    90.00000    90.00000  Step:          47  Bead:       0 positions{angstrom}  cell{angstrom}
       O -3.14658e+00  1.07438e+00  3.72340e-01
       H -3.85039e+00  5.67453e-01  6.75365e-01
       H -2.40454e+00  4.75008e-01  1.02709e-01
       H -3.18419e+00  1.97446e+00 -2.71034e-03
4
# CELL(abcABC): 1000.00000  1000.00000  1000.00000    90.00000    90.00000    90.00000  Step:          48  Bead:       0 positions{angstrom}  cell{angstrom}
       O -3.14519e+00  1.07481e+00  3.72063e-01
       H -3.85580e+00  5.50841e-01  6.73115e-01
       H -2.40402e+00  4.80930e-01  1.07305e-01
       H -3.20132e+00  1.97819e+00 -6.49386e-04
4
# CELL(abcABC): 1000.00000  1000.00000  1000.00000    90.00000    90.00000    90.00000  Step:          49  Bead:       0 positions{angstrom}  cell{angstrom}
       O -3.14347e+00  1.07498e+00  3.71588e-01
       H -3.86389e+00  5.33178e-01  6.72191e-01
       H -2.40486e+00  4.89475e-01  1.13068e-01
       H -3.21979e+00  1.98473e+00  2.05056e-03
4
# CELL(abcABC): 1000.00000  1000.00000  1000.00000    90.00000    90.00000    90.00000  Step:          50  Bead:       0 positions{angstrom}  cell{angstrom}
       O -3.14138e+00  1.07490e+00  3.71194e-01
       H -3.87303e+00  5.16445e-01  6.70907e-01
       H -2.40917e+00  4.99687e-01  1.19566e-01
       H -3.23953e+00  1.99241e+00  3.09203e-03
4
# CELL(abcABC): 1000.00000  1000.00000  1000.00000    90.00000    90.00000    90.00000  Step:          51  Bead:       0 positions{angstrom}  cell{angstrom}
       O -3.13930e+00  1.07453e+00  3.70860e-01
       H -3.88146e+00  5.01382e-01  6.68408e-01
       H -2.41436e+00  5.11747e-01  1.26030e-01
       H -3.25886e+00  2.00130e+00  4.42427e-03
4
# CELL(abcABC): 1000.00000  1000.00000  1000.00000    90.00000    90.00000    90.00000  Step:          52  Bead:       0 positions{angstrom}  cell{angstrom}
       O -3.13741e+00  1.07402e+00  3.70741e-01
       H -3.88782e+00  4.89173e-01  6.64627e-01
       H -2.41890e+00  5.23688e-01  1.30849e-01
       H -3.27799e+00  2.00967e+00  5.28287e-03
4
# CELL(abcABC): 1000.00000  1000.00000  1000.00000    90.00000    90.00000    90.00000  Step:          53  Bead:       0 positions{angstrom}  cell{angstrom}
       O -3.13592e+00  1.07333e+00  3.70733e-01
       H -3.89014e+00  4.81219e-01  6.58338e-01
       H -2.42129e+00  5.36388e-01  1.35217e-01
       H -3.29695e+00  2.01596e+00  7.32880e-03
4
# CELL(abcABC): 1000.00000  1000.00000  1000.00000    90.00000    90.00000    90.00000  Step:          54  Bead:       0 positions{angstrom}  cell{angstrom}
       O -3.13492e+00  1.07265e+00  3.70626e-01
       H -3.88863e+00  4.76330e-01  6.51498e-01
       H -2.42020e+00  5.48101e-01  1.38794e-01
       H -3.31536e+00  2.01983e+00  1.22921e-02
4
# CELL(abcABC): 1000.00000  1000.00000  1000.00000    90.00000    90.00000    90.00000  Step:          55  Bead:       0 positions{angstrom}  cell{angstrom}
       O -3.13458e+00  1.07201e+00  3.70647e-01
       H -3.88373e+00  4.75458e-01  6.43931e-01
       H -2.41403e+00  5.57507e-01  1.41172e-01
       H -3.33190e+00  2.02151e+00  1.71444e-02
4
# CELL(abcABC): 1000.00000  1000.00000  1000.00000    90.00000    90.00000    90.00000  Step:          56  Bead:       0 positions{angstrom}  cell{angstrom}
       O -3.13492e+00  1.07139e+00  3.70807e-01
       H -3.87300e+00  4.78302e-01  6.35731e-01
       H -2.40285e+00  5.64114e-01  1.40573e-01
       H -3.34839e+00  2.02186e+00  2.34007e-02
4
# CELL(abcABC): 1000.00000  1000.00000  1000.00000    90.00000    90.00000    90.00000  Step:          57  Bead:       0 positions{angstrom}  cell{angstrom}
       O -3.13578e+00  1.07082e+00  3.71010e-01
       H -3.85794e+00  4.84277e-01  6.27291e-01
       H -2.38832e+00  5.68266e-01  1.39374e-01
       H -3.36438e+00  2.02078e+00  2.98098e-02
4
# CELL(abcABC): 1000.00000  1000.00000  1000.00000    90.00000    90.00000    90.00000  Step:          58  Bead:       0 positions{angstrom}  cell{angstrom}
       O -3.13706e+00  1.07042e+00  3.71242e-01
       H -3.84052e+00  4.90655e-01  6.18596e-01
       H -2.37035e+00  5.71330e-01  1.37735e-01
       H -3.37934e+00  2.01781e+00  3.64680e-02
4
# CELL(abcABC): 1000.00000  1000.00000  1000.00000    90.00000    90.00000    90.00000  Step:          59  Bead:       0 positions{angstrom}  cell{angstrom}
       O -3.13853e+00  1.07011e+00  3.71305e-01
       H -3.82288e+00  4.96516e-01  6.10696e-01
       H -2.35075e+00  5.74955e-01  1.37262e-01
       H -3.39323e+00  2.01310e+00  4.38345e-02
4
# CELL(abcABC): 1000.00000  1000.00000  1000.00000    90.00000    90.00000    90.00000  Step:          60  Bead:       0 positions{angstrom}  cell{angstrom}
       O -3.13993e+00  1.07006e+00  3.71285e-01
       H -3.80920e+00  4.99361e-01  6.04419e-01
       H -2.33075e+00  5.79091e-01  1.35403e-01
       H -3.40471e+00  2.00694e+00  5.22979e-02
4
# CELL(abcABC): 1000.00000  1000.00000  1000.00000    90.00000    90.00000    90.00000  Step:          61  Bead:       0 positions{angstrom}  cell{angstrom}
       O -3.14110e+00  1.07028e+00  3.71101e-01
       H -3.79933e+00  4.97355e-01  6.00078e-01
       H -2.31153e+00  5.85009e-01  1.32969e-01
       H -3.41522e+00  1.99954e+00  6.19917e-02
4
# CELL(abcABC): 1000.00000  1000.00000  1000.00000    90.00000    90.00000    90.00000  Step:          62  Bead:       0 positions{angstrom}  cell{angstrom}
       O -3.14172e+00  1.07081e+00  3.70825e-01
       H -3.79590e+00  4.89191e-01  5.97820e-01
       H -2.29699e+00  5.93103e-01  1.31138e-01
       H -3.42338e+00  1.99119e+00  7.04666e-02
4
# CELL(abcABC): 1000.00000  1000.00000  1000.00000    90.00000    90.00000    90.00000  Step:          63  Bead:       0 positions{angstrom}  cell{angstrom}
       O -3.14176e+00  1.07139e+00  3.70180e-01
       H -3.79743e+00  4.76910e-01  5.98407e-01
       H -2.28720e+00  6.03407e-01  1.30455e-01
       H -3.43104e+00  1.98394e+00  8.07948e-02
4
# CELL(abcABC): 1000.00000  1000.00000  1000.00000    90.00000    90.00000    90.00000  Step:          64  Bead:       0 positions{angstrom}  cell{angstrom}
       O -3.14135e+00  1.07201e+00  3.69318e-01
       H -3.80163e+00  4.61032e-01  6.01865e-01
       H -2.28191e+00  6.16461e-01  1.31183e-01
       H -3.43855e+00  1.97697e+00  9.02866e-02
4
# CELL(abcABC): 1000.00000  1000.00000  1000.00000    90.00000    90.00000    90.00000  Step:          65  Bead:       0 positions{angstrom}  cell{angstrom}
       O -3.14059e+00  1.07247e+00  3.68360e-01
       H -3.80862e+00  4.43672e-01  6.05435e-01
       H -2.28071e+00  6.33549e-01  1.33064e-01
       H -3.44488e+00  1.96989e+00  1.00043e-01
4
# CELL(abcABC): 1000.00000  1000.00000  1000.00000    90.00000    90.00000    90.00000  Step:          66  Bead:       0 positions{angstrom}  cell{angstrom}
       O -3.13963e+00  1.07261e+00  3.67260e-01
       H -3.81571e+00  4.28748e-01  6.10134e-01
       H -2.28348e+00  6.51516e-01  1.36374e-01
       H -3.45021e+00  1.96469e+00  1.09500e-01
4
# CELL(abcABC): 1000.00000  1000.00000  1000.00000    90.00000    90.00000    90.00000  Step:          67  Bead:       0 positions{angstrom}  cell{angstrom}
       O -3.13856e+00  1.07251e+00  3.66170e-01
       H -3.82093e+00  4.14501e-01  6.13834e-01
       H -2.28872e+00  6.71288e-01  1.41014e-01
       H -3.45681e+00  1.96080e+00  1.18460e-01
4
# CELL(abcABC): 1000.00000  1000.00000  1000.00000    90.00000    90.00000    90.00000  Step:          68  Bead:       0 positions{angstrom}  cell{angstrom}
       O -3.13763e+00  1.07200e+00  3.65303e-01
       H -3.82260e+00  4.02741e-01  6.16528e-01
       H -2.29503e+00  6.92039e-01  1.44448e-01
       H -3.46353e+00  1.95980e+00  1.26102e-01
4
# CELL(abcABC): 1000.00000  1000.00000  1000.00000    90.00000    90.00000    90.00000  Step:          69  Bead:       0 positions{angstrom}  cell{angstrom}
       O -3.13692e+00  1.07128e+00  3.64383e-01
       H -3.82091e+00  3.92870e-01  6.19797e-01
       H -2.30155e+00  7.12874e-01  1.48667e-01
       H -3.46996e+00  1.96040e+00  1.33203e-01
4
# CELL(abcABC): 1000.00000  1000.00000  1000.00000    90.00000    90.00000    90.00000  Step:          70  Bead:       0 positions{angstrom}  cell{angstrom}
       O -3.13681e+00  1.07012e+00  3.63639e-01
       H -3.81463e+00  3.87316e-01  6.20859e-01
       H -2.30528e+00  7.33535e-01  1.51953e-01
       H -3.47429e+00  1.96364e+00  1.40667e-01
4
# CELL(abcABC): 1000.00000  1000.00000  1000.00000    90.00000    90.00000    90.00000  Step:          71  Bead:       0 positions{angstrom}  cell{angstrom}
       O -3.13721e+00  1.06883e+00  3.63155e-01
       H -3.80487e+00  3.84177e-01  6.19224e-01
       H -2.30502e+00  7.51972e-01  1.53715e-01
       H -3.47797e+00  1.96887e+00  1.48233e-01
4
# CELL(abcABC): 1000.00000  1000.00000  1000.00000    90.00000    90.00000    90.00000  Step:          72  Bead:       0 positions{angstrom}  cell{angstrom}
       O -3.13825e+00  1.06730e+00  3.62807e-01
       H -3.79102e+00  3.84248e-01  6.16692e-01
       H -2.29910e+00  7.68451e-01  1.54933e-01
       H -3.48119e+00  1.97648e+00  1.55073e-01
4
# CELL(abcABC): 1000.00000  1000.00000  1000.00000    90.00000    90.00000    90.00000  Step:          73  Bead:       0 positions{angstrom}  cell{angstrom}
       O -3.13981e+00  1.06578e+00  3.62676e-01
       H -3.77446e+00  3.86085e-01  6.13155e-01
       H -2.28776e+00  7.83185e-01  1.54984e-01
       H -3.48438e+00  1.98406e+00  1.60627e-01
4
# CELL(abcABC): 1000.00000  1000.00000  1000.00000    90.00000    90.00000    90.00000  Step:          74  Bead:       0 positions{angstrom}  cell{angstrom}
       O -3.14180e+00  1.06427e+00  3.62791e-01
       H -3.75600e+00  3.88511e-01  6.07945e-01
       H -2.27221e+00  7.96183e-01  1.53035e-01
       H -3.48678e+00  1.99260e+00  1.65970e-01
4
# CELL(abcABC): 1000.00000  1000.00000  1000.00000    90.00000    90.00000    90.00000  Step:          75  Bead:       0 positions{angstrom}  cell{angstrom}
       O -3.14381e+00  1.06299e+00  3.62911e-01
       H -3.73806e+00  3.88672e-01  6.02434e-01
       H -2.25503e+00  8.07362e-01  1.51545e-01
       H -3.48999e+00  2.00168e+00  1.71062e-01
4
# CELL(abcABC): 1000.00000  1000.00000  1000.00000    90.00000    90.00000    90.00000  Step:          76  Bead:       0 positions{angstrom}  cell{angstrom}
       O -3.14584e+00  1.06187e+00  3.62829e-01
       H -3.72086e+00  3.86056e-01  5.98883e-01
       H -2.23798e+00  8.17904e-01  1.50409e-01
       H -3.49199e+00  2.01143e+00  1.77056e-01
4
# CELL(abcABC): 1000.00000  1000.00000  1000.00000    90.00000    90.00000    90.00000  Step:          77  Bead:       0 positions{angstrom}  cell{angstrom}
       O -3.14752e+00  1.06113e+00  3.62554e-01
       H -3.70660e+00  3.79838e-01  5.96769e-01
       H -2.22339e+00  8.28479e-01  1.50649e-01
       H -3.49423e+00  2.01889e+00  1.83282e-01
4
# CELL(abcABC): 1000.00000  1000.00000  1000.00000    90.00000    90.00000    90.00000  Step:          78  Bead:       0 positions{angstrom}  cell{angstrom}
       O -3.14872e+00  1.06086e+00  3.62241e-01
       H -3.69710e+00  3.67608e-01  5.95458e-01
       H -2.21144e+00  8.39685e-01  1.51759e-01
       H -3.49658e+00  2.02422e+00  1.88455e-01
4
# CELL(abcABC): 1000.00000  1000.00000  1000.00000    90.00000    90.00000    90.00000  Step:          79  Bead:       0 positions{angstrom}  cell{angstrom}
       O -3.14951e+00  1.06114e+00  3.61684e-01
       H -3.69163e+00  3.50895e-01  5.97043e-01
       H -2.20263e+00  8.50158e-01  1.54004e-01
       H -3.49828e+00  2.02595e+00  1.93466e-01
4
# CELL(abcABC): 1000.00000  1000.00000  1000.00000    90.00000    90.00000    90.00000  Step:          80  Bead:       0 positions{angstrom}  cell{angstrom}
       O -3.14995e+00  1.06182e+00  3.60828e-01
       H -3.68819e+00  3.30832e-01  5.99839e-01
       H -2.19835e+00  8.60536e-01  1.58749e-01
       H -3.49914e+00  2.02490e+00  1.99509e-01
4
# CELL(abcABC): 1000.00000  1000.00000  1000.00000    90.00000    90.00000    90.00000  Step:          81  Bead:       0 positions{angstrom}  cell{angstrom}
       O -3.15006e+00  1.06260e+00  3.59884e-01
       H -3.68377e+00  3.09960e-01  6.02626e-01
       H -2.19961e+00  8.72956e-01  1.65116e-01
       H -3.50050e+00  2.02087e+00  2.05341e-01
4
# CELL(abcABC): 1000.00000  1000.00000  1000.00000    90.00000    90.00000    90.00000  Step:          82  Bead:       0 positions{angstrom}  cell{angstrom}
       O -3.14989e+00  1.06364e+00  3.58743e-01
       H -3.67860e+00  2.88717e-01  6.06227e-01
       H -2.20490e+00  8.84270e-01  1.72693e-01
       H -3.50316e+00  2.01433e+00  2.12283e-01
4
# CELL(abcABC): 1000.00000  1000.00000  1000.00000    90.00000    90.00000    90.00000  Step:          83  Bead:       0 positions{angstrom}  cell{angstrom}
       O -3.14957e+00  1.06459e+00  3.57555e-01
       H -3.67231e+00  2.69928e-01  6.09780e-01
       H -2.21358e+00  8.95959e-01  1.81280e-01
       H -3.50574e+00  2.00633e+00  2.19002e-01
4
# CELL(abcABC): 1000.00000  1000.00000  1000.00000    90.00000    90.00000    90.00000  Step:          84  Bead:       0 positions{angstrom}  cell{angstrom}
       O -3.14919e+00  1.06541e+00  3.56405e-01
       H -3.66313e+00  2.53877e-01  6.11419e-01
       H -2.22519e+00  9.07656e-01  1.90394e-01
       H -3.50942e+00  1.99770e+00  2.26494e-01
4
# CELL(abcABC): 1000.00000  1000.00000  1000.00000    90.00000    90.00000    90.00000  Step:          85  Bead:       0 positions{angstrom}  cell{angstrom}