11135
# CELL(abcABC):   47.46614    47.46614    47.46614    90.00000    90.00000    90.00000  Step:        5450  Bead:       0 positions{angstrom}  cell{angstrom}
       C -6.01598e+00 -2.74659e+00  3.16625e+00
       H -6.01563e+00 -1.96269e+00  3.92883e+00
       H -5.79058e+00 -3.72821e+00  3.62267e+00
       H -7.02885e+00 -2.77248e+00  2.64932e+00
       C -5.02471e+00 -2.53704e+00  2.06859e+00
       O -4.44644e+00 -3.53704e+00  1.60221e+00
       N -4.75005e+00 -1.29752e+00  1.60766e+00
       H -5.14071e+00 -4.96644e-01  2.08354e+00
       C -3.69491e+00 -9.16832e-01  6.36854e-01
       H -3.73114e+00 -1.69056e+00 -1.53762e-01
       C -4.22621e+00  3.31028e-01 -1.15554e-01
       H -3.41274e+00  6.11112e-01 -8.63086e-01
       H -4.44518e+00  1.12450e+00  6.24502e-01
       C -5.51960e+00  7.36355e-02 -9.13953e-01
       H -6.31008e+00 -1.52686e-01 -1.53438e-01
       H -5.35671e+00 -7.17742e-01 -1.63602e+00
       C -5.86269e+00  1.38848e+00 -1.57943e+00
       H -5.09757e+00  1.74374e+00 -2.22810e+00
       H -6.05552e+00  2.14432e+00 -7.87892e-01
       C -7.12476e+00  1.32283e+00 -2.40259e+00
       H -7.43836e+00  2.31351e+00 -2.67662e+00
       H -7.91934e+00  8.78619e-01 -1.78587e+00
       N -7.08781e+00  4.09662e-01 -3.57138e+00
       H -6.27143e+00  5.01096e-01 -4.06326e+00
       H -7.85059e+00  6.49029e-01 -4.33147e+00
       H -7.07444e+00 -5.79298e-01 -3.28861e+00
       C -2.28484e+00 -8.40671e-01  1.25297e+00
       O -1.74564e+00  2.52064e-01  1.58320e+00
       N -1.74822e+00 -2.00880e+00  1.41991e+00
       H -2.26965e+00 -2.85343e+00  1.60219e+00
       H -8.23810e-01 -2.04438e+00  1.77110e+00
       O -1.37764e+01 -3.47707e+00 -2.82407e+01
       H -1.42055e+01 -2.59338e+00 -2.83435e+01
       H -1.44362e+01 -4.11653e+00 -2.83776e+01
       O -2.20424e+01 -6.02551e+00 -9.55513e+00
       H -2.16136e+01 -5.93534e+00 -8.67496e+00
       H -2.12807e+01 -6.37538e+00 -1.01589e+01
       O  1.19707e+01 -1.51557e+01 -3.00501e+00
       H  1.12927e+01 -1.53254e+01 -3.72090e+00
       H  1.18769e+01 -1.41828e+01 -2.91741e+00
       O -1.53492e+01 -1.46337e+01 -2.24627e+01
       H -1.62301e+01 -1.42441e+01 -2.22931e+01
       H -1.56108e+01 -1.50580e+01 -2.33118e+01
       O -1.02000e+01 -9.86445e+00 -1.49688e+01
       H -1.09857e+01 -1.04088e+01 -1.47300e+01
       H -9.53864e+00 -1.05866e+01 -1.48465e+01
       O  2.50997e+01 -2.26575e+01  2.44557e+01
       H  2.41238e+01 -2.24368e+01  2.43592e+01
       H  2.51004e+01 -2.34991e+01  2.49080e+01
       O -1.66363e+01 -8.60803e+00 -4.02139e+00
       H -1.72254e+01 -9.13293e+00 -4.58549e+00
       H -1.65264e+01 -9.25980e+00 -3.30280e+00
       O  1.54579e+01 -2.20100e+01 -1.68365e+01
       H  1.49149e+01 -2.26395e+01 -1.62212e+01
       H  1.47694e+01 -2.18561e+01 -1.75827e+01
       O -1.29332e+01 -1.86098e+01 -2.11403e+00
       H -1.23015e+01 -1.84648e+01 -2.81009e+00
       H -1.34350e+01 -1.93017e+01 -2.56716e+00
       O  1.41186e+01 -2.06948e+01 -6.29025e+00
       H  1.47573e+01 -2.13483e+01 -5.95157e+00
       H  1.32681e+01 -2.10682e+01 -5.97089e+00
       O -3.11914e+01 -1.29702e+01 -3.83747e+00
       H -3.03470e+01 -1.33297e+01 -4.10365e+00
       H -3.17807e+01 -1.37686e+01 -3.87301e+00
       O  5.90218e+00 -2.56753e+01 -4.72425e+00
       H  6.33241e+00 -2.63836e+01 -5.33679e+00
       H  5.68826e+00 -2.63319e+01 -4.02714e+00
       O  6.52637e+00  1.31163e+01 -9.62818e+00
       H  7.40062e+00  1.35934e+01 -9.50334e+00
       H  6.64450e+00  1.25784e+01 -8.85710e+00
       O -3.46664e+01 -1.16615e+01 -8.02641e+00
       H -3.37916e+01 -1.19858e+01 -8.33439e+00
       H -3.44555e+01 -1.08535e+01 -7.63436e+00
       O -3.43572e+00 -1.77601e+01 -2.59004e+01
       H -2.59356e+00 -1.73745e+01 -2.59187e+01
       H -3.89800e+00 -1.69976e+01 -2.55467e+01
       O -8.82866e-01 -1.14308e+01 -1.00626e+01
       H -6.87531e-01 -1.12659e+01 -9.11012e+00
       H -2.16685e-01 -1.07835e+01 -1.04432e+01
       O -5.55851e+00 -1.93655e+01 -8.42801e-01
       H -6.41161e+00 -1.88871e+01 -9.30398e-01
       H -5.81228e+00 -2.00776e+01 -2.58360e-01
       O -7.56537e-01 -1.67914e+01 -2.62271e+01
       H -1.45172e-01 -1.61072e+01 -2.66468e+01
       H -4.21040e-01 -1.76457e+01 -2.65836e+01
       O -6.82164e+00 -1.82149e+01 -1.19336e+01
       H -7.52490e+00 -1.85579e+01 -1.25268e+01
       H -7.05729e+00 -1.72553e+01 -1.19420e+01
       O -5.41704e+00  1.76910e+01 -5.92500e-01
       H -5.45237e+00  1.80217e+01 -1.50881e+00
       H -4.61852e+00  1.71125e+01 -4.80545e-01
       O -2.61570e+01 -5.79620e+00 -2.98882e+00
       H -2.61842e+01 -5.04138e+00 -2.37158e+00
       H -2.67655e+01 -5.51844e+00 -3.64793e+00
       O -2.67161e+01 -3.52260e+00 -9.16789e+00
       H -2.66218e+01 -4.01287e+00 -9.96833e+00
       H -2.58585e+01 -3.07477e+00 -9.12989e+00
       O  2.54456e+01 -1.52858e+01 -2.15301e+01
       H  2.47295e+01 -1.59327e+01 -2.14042e+01
       H  2.56145e+01 -1.52323e+01 -2.24586e+01
       O -1.54681e+01 -1.36564e+01 -1.49701e+01
       H -1.49106e+01 -1.31410e+01 -1.56377e+01
       H -1.62849e+01 -1.38570e+01 -1.54636e+01
       O -7.75854e+00 -2.16933e+01 -1.37109e+01
       H -7.21373e+00 -2.22650e+01 -1.42739e+01
       H -8.32340e+00 -2.22187e+01 -1.32430e+01
       O -1.80190e+01 -1.40715e+01  2.52296e+01
       H -1.84499e+01 -1.48228e+01  2.47441e+01
       H -1.84966e+01 -1.32728e+01  2.48887e+01
       O -2.86630e+00 -3.62374e+01 -2.14978e+01
       H -3.74526e+00 -3.62140e+01 -2.10947e+01
       H -2.80053e+00 -3.72130e+01 -2.16147e+01
       O -5.09179e+00 -7.34449e+00  1.77423e+01
       H -5.46822e+00 -7.77694e+00  1.85873e+01
       H -4.69013e+00 -6.57314e+00  1.81196e+01
       O -1.36125e+01  1.18660e+00 -2.77945e+00
       H -1.40360e+01  5.45688e-01 -3.30506e+00
       H -1.33058e+01  1.72667e+00 -3.54432e+00
       O -2.44270e+01 -5.49144e+00  2.58496e+01
       H -2.52340e+01 -5.20308e+00  2.63503e+01
       H -2.40471e+01 -6.08941e+00  2.64944e+01
       O -1.89728e+01 -1.57356e+01 -1.58968e+01
       H -1.89657e+01 -1.64890e+01 -1.65644e+01
       H -1.84219e+01 -1.50233e+01 -1.63256e+01
       O  2.65872e+00 -9.74357e+00 -2.11510e+01
       H  3.61741e+00 -9.94928e+00 -2.09237e+01
       H  2.54141e+00 -9.93899e+00 -2.21196e+01
       O  3.67063e-01 -1.22182e+01 -2.86358e+01
       H  1.06059e+00 -1.18524e+01 -2.79798e+01
       H  8.07851e-02 -1.14459e+01 -2.91396e+01
       O -4.95981e+00 -2.39570e+01  5.25838e+00
       H -4.14095e+00 -2.42694e+01  5.72800e+00
       H -5.59263e+00 -2.46539e+01  5.35819e+00
       O -1.67235e+01 -1.68955e+01 -1.44609e+01
       H -1.76546e+01 -1.70524e+01 -1.47190e+01
       H -1.62408e+01 -1.69479e+01 -1.53201e+01
       O -2.60143e+01 -2.25392e+01  1.92269e+01
       H -2.61539e+01 -2.34681e+01  1.95175e+01
       H -2.51008e+01 -2.26353e+01  1.89014e+01
       O -1.65685e+01 -2.41565e+01 -6.26302e+00
       H -1.68287e+01 -2.45930e+01 -7.05757e+00
       H -1.71339e+01 -2.34242e+01 -6.30720e+00
       O  3.33977e+00 -2.79145e+00 -3.07374e+01
       H  3.49448e+00 -2.05051e+00 -3.01324e+01
       H  2.35018e+00 -2.91341e+00 -3.06477e+01
       O -1.09293e+01  4.96816e+00 -1.04182e+01
       H -1.00365e+01  5.34051e+00 -1.03865e+01
       H -1.14457e+01  5.73931e+00 -1.02083e+01
       O -5.42203e+00 -2.33016e+01 -1.50188e+01
       H -5.33748e+00 -2.31956e+01 -1.59888e+01
       H -4.46464e+00 -2.31572e+01 -1.48117e+01
       O  1.39022e+01 -1.92374e+01 -1.10704e+01
       H  1.41780e+01 -1.86998e+01 -1.03215e+01
       H  1.37521e+01 -1.85542e+01 -1.17404e+01
       O -1.16620e+01 -3.85301e+00 -3.70843e+01
       H -1.09104e+01 -3.41175e+00  1.08582e+01
       H -1.19974e+01 -4.34927e+00 -3.63352e+01
       O  1.52859e+01 -2.61273e+01 -1.52788e+01
       H  1.50003e+01 -2.52151e+01 -1.53738e+01
       H  1.62685e+01 -2.60660e+01 -1.51212e+01
       O -1.83939e+01 -8.31466e+00 -2.23690e+01
       H -1.82440e+01 -7.40191e+00 -2.20151e+01
       H -1.83511e+01 -8.86113e+00 -2.16040e+01
       O -2.44285e+01 -2.39545e+01 -1.37245e+01
       H -2.35776e+01 -2.42935e+01 -1.34397e+01
       H -2.49697e+01 -2.39906e+01 -1.29085e+01
       O -3.73008e+00 -1.57351e+01  8.76454e+00
       H -3.90130e+00 -1.62689e+01  9.48801e+00
       H -2.72475e+00 -1.57987e+01  8.76212e+00
       O -1.54680e+01 -1.53015e+01  1.82604e+00
       H -1.57629e+01 -1.62257e+01  1.68690e+00
       H -1.49074e+01 -1.54468e+01  2.58766e+00
       O  6.82476e+00 -1.39866e+01 -1.15112e+01
       H  6.68829e+00 -1.37869e+01 -1.05516e+01
       H  6.06686e+00 -1.45696e+01 -1.16464e+01
       O  6.78782e+00 -6.40582e+00 -1.47806e+01
       H  7.19638e+00 -7.18077e+00 -1.52117e+01
       H  7.37282e+00 -6.21684e+00 -1.40452e+01
       O -2.16266e+01  7.17552e-01 -1.31168e+01
       H -2.21309e+01  1.01019e+00 -1.38634e+01
       H -2.08100e+01  4.25305e-01 -1.34665e+01
       O -1.58362e+01 -5.51513e+00 -2.26376e+01
       H -1.57462e+01 -6.45785e+00 -2.29892e+01
       H -1.50641e+01 -4.99689e+00 -2.29912e+01
       O -1.57001e+01 -1.19563e+01 -2.07419e+01
       H -1.58848e+01 -1.17721e+01 -2.16856e+01
       H -1.66140e+01 -1.18604e+01 -2.04513e+01
       O -1.06644e+01 -1.07514e+01 -2.39806e+01
       H -1.04688e+01 -1.17062e+01 -2.40460e+01
       H -1.02650e+01 -1.06305e+01 -2.31032e+01
       O -1.05917e+01 -1.80117e+00 -9.26376e+00
       H -1.08257e+01 -1.54341e+00 -8.37273e+00
       H -1.12986e+01 -2.44380e+00 -9.43411e+00
       O  5.24068e+00 -8.09709e+00 -1.96279e+01
       H  5.10135e+00 -8.78695e+00 -1.90110e+01
       H  4.73620e+00 -7.36030e+00 -1.91698e+01
       O -1.46222e+01 -1.26211e+01  2.60483e+00
       H -1.53432e+01 -1.32590e+01  2.47582e+00
       H -1.46331e+01 -1.25310e+01  3.58126e+00
       O -1.77243e+01 -5.10801e+00  1.63298e+00
       H -1.73288e+01 -5.95631e+00  1.41987e+00
       H -1.86458e+01 -5.27998e+00  1.28007e+00
       O -4.77827e+00 -1.70778e+01 -2.16300e+01
       H -5.07430e+00 -1.71992e+01 -2.07619e+01
       H -4.60372e+00 -1.79873e+01 -2.18927e+01
       O -4.90525e+00 -2.03444e+01 -1.34341e+01
       H -5.78184e+00 -2.07212e+01 -1.35858e+01
       H -5.21182e+00 -1.96229e+01 -1.28197e+01
       O -4.39278e-02  2.77552e+01  5.70909e+00
       H -1.90310e-02  2.75253e+01  4.74492e+00
       H  4.46789e-01  2.86066e+01  5.73701e+00
       O -1.10638e+01 -3.39539e+00 -2.89163e+01
       H -1.05653e+01 -2.57748e+00 -2.89016e+01
       H -1.19835e+01 -3.13373e+00 -2.88821e+01
       O -6.64854e+00  2.57771e+01  5.28809e+00
       H -6.18354e+00  2.49466e+01  4.99010e+00
       H -6.55628e+00  2.56923e+01  6.24832e+00
       O -5.00381e+00 -1.48015e+01 -1.07528e+01
       H -4.65048e+00 -1.40137e+01 -1.03129e+01
       H -4.74441e+00 -1.54816e+01 -1.00714e+01
       O  3.68708e+00 -1.22585e+01 -1.13602e+00
       H  3.02713e+00 -1.29925e+01 -1.22604e+00
       H  3.40948e+00 -1.15994e+01 -1.85425e+00
       O -1.71194e+00 -9.61613e+00  6.54554e+00
       H -2.09317e+00 -1.00032e+01  5.73862e+00
       H -2.46064e+00 -9.36822e+00  7.10053e+00
       O -1.83593e+01 -7.95135e-01  1.44260e+01
       H -1.75410e+01 -3.97859e-01  1.40430e+01
       H -1.89897e+01 -2.61410e-01  1.39714e+01
       O -1.82266e+01 -8.80201e+00 -1.14459e+01
       H -1.77240e+01 -8.58800e+00 -1.22432e+01
       H -1.75045e+01 -8.83764e+00 -1.08242e+01
       O  2.43482e+00 -1.17083e+01 -7.21391e+00
       H  1.68653e+00 -1.11182e+01 -7.18418e+00
       H  3.08042e+00 -1.12860e+01 -6.66592e+00
       O -1.24633e+01 -2.19268e+01 -1.11945e+01
       H -1.29048e+01 -2.28009e+01 -1.10767e+01
       H -1.30481e+01 -2.12594e+01 -1.07098e+01
       O -3.40935e+01 -2.25868e+01  2.14345e+01
       H -3.32358e+01 -2.30061e+01  2.12072e+01
       H -3.38393e+01 -2.17170e+01  2.18209e+01
       O  1.89917e+01  2.53112e+01  2.58289e+01
       H  1.97037e+01  2.51448e+01  2.64273e+01
       H  1.93960e+01  2.52575e+01  2.49666e+01
       O -3.04449e+00 -1.28779e+01 -9.98719e+00
       H -2.20007e+00 -1.23421e+01 -9.79003e+00
       H -2.56586e+00 -1.37330e+01 -1.00035e+01
       O -9.17714e+00 -1.43216e+01 -1.37515e+01
       H -9.68259e+00 -1.35344e+01 -1.35252e+01
       H -9.99579e+00 -1.48954e+01 -1.36809e+01
       O -1.75223e+01 -3.95863e+00  6.59216e+00
       H -1.70423e+01 -4.54285e+00  5.94352e+00
       H -1.76005e+01 -3.14158e+00  6.00000e+00
       O -1.37202e+01 -1.91275e+01 -2.74256e+01
       H -1.39851e+01 -1.96823e+01 -2.81735e+01
       H -1.45559e+01 -1.88735e+01 -2.70899e+01
       O -1.82326e+01 -1.60853e+01 -2.39408e+01
       H -1.85918e+01 -1.57656e+01 -2.47847e+01
       H -1.84098e+01 -1.70727e+01 -2.40527e+01
       O -4.18866e+00 -1.04241e+01 -1.37725e+01
       H -3.85605e+00 -9.50862e+00 -1.38502e+01
       H -3.49502e+00 -1.08862e+01 -1.32506e+01
       O -1.50773e+01 -1.22198e+01 -1.75319e+01
       H -1.43875e+01 -1.15124e+01 -1.74715e+01
       H -1.49436e+01 -1.25623e+01 -1.84474e+01
       O -1.35308e+01 -1.96527e+01 -1.49061e+01
       H -1.38855e+01 -1.92728e+01 -1.40688e+01
       H -1.26084e+01 -1.96639e+01 -1.46430e+01
       O -1.15274e+01 -1.67821e+01 -1.07534e+01
       H -1.12669e+01 -1.66849e+01 -1.16565e+01
       H -1.23814e+01 -1.62908e+01 -1.07724e+01
       O -7.51386e+00 -1.54950e+01 -1.14483e+01
       H -6.60652e+00 -1.51080e+01 -1.13477e+01
       H -7.90945e+00 -1.48272e+01 -1.20099e+01
       O  1.99942e+01 -1.20297e+01 -1.12001e+01
       H  2.02925e+01 -1.29283e+01 -1.15019e+01
       H  1.91716e+01 -1.22294e+01 -1.06557e+01
       O -5.92617e+00 -2.78494e+01 -2.57013e+00
       H -5.35383e+00 -2.71769e+01 -2.94496e+00
       H -6.51705e+00 -2.73397e+01 -1.95860e+00
       O -1.79810e+01 -2.45808e+01  9.64817e+00
       H -1.80968e+01 -2.54125e+01  1.00581e+01
       H -1.71889e+01 -2.41879e+01  1.01106e+01
       O -1.44971e+01 -1.07256e+01 -3.08158e+00
       H -1.49802e+01 -1.15224e+01 -3.19573e+00
       H -1.39925e+01 -1.06617e+01 -3.93064e+00
       O -1.43240e+01  2.17347e+00 -1.76856e+01
       H -1.50752e+01  2.33837e+00 -1.70200e+01
       H -1.47214e+01  2.29113e+00 -1.85976e+01
       O  2.85529e+01 -1.59874e+01  3.86970e+00
       H  2.93041e+01 -1.55156e+01  4.20518e+00
       H  2.89430e+01 -1.65334e+01  3.10453e+00
       O  1.11330e+01 -1.50617e+01 -2.32500e+01
       H  1.17572e+01 -1.57938e+01 -2.30957e+01
       H  1.11829e+01 -1.50857e+01 -2.42242e+01
       O  6.28569e+00 -2.42421e+01 -2.31716e+00
       H  5.85728e+00 -2.34014e+01 -2.61884e+00
       H  6.24790e+00 -2.49160e+01 -3.05132e+00
       O -2.03804e+01 -1.38594e+01 -1.96690e+01
       H -1.97833e+01 -1.45682e+01 -2.00225e+01
       H -2.10844e+01 -1.38521e+01 -2.02610e+01
       O -2.18204e+00 -7.07152e+00 -1.21443e+01
       H -1.97495e+00 -7.49255e+00 -1.30004e+01
       H -2.13822e+00 -6.13798e+00 -1.22874e+01
       O  9.68049e-01 -6.19832e+00 -1.00238e+01
       H  1.54559e+00 -5.90916e+00 -1.08050e+01
       H  7.38154e-01 -5.33383e+00 -9.51561e+00
       O -7.92584e+00 -5.50314e+00  1.87402e+00
       H -8.15118e+00 -5.50774e+00  8.93996e-01
       H -8.18676e+00 -4.61811e+00  2.20974e+00
       O -1.13759e+01  1.26464e+01 -1.33432e+01
       H -1.20668e+01  1.22863e+01 -1.38768e+01
       H -1.07241e+01  1.24679e+01 -1.40704e+01
       O  1.44053e-01 -8.83151e+00 -2.57423e+01
       H -6.53638e-01 -8.32457e+00 -2.60383e+01
       H -1.89003e-01 -9.76832e+00 -2.58811e+01
       O -2.44362e+01 -9.88545e+00  2.51961e+01
       H -2.51543e+01 -9.22837e+00  2.53223e+01
       H -2.39992e+01 -9.51827e+00  2.43942e+01
       O  1.99682e+01 -1.46324e+01  3.85319e+01
       H  2.01724e+01 -1.46378e+01  3.75795e+01
       H  2.07819e+01 -1.42381e+01  3.89204e+01
       O -1.01074e+01 -8.84563e+00 -1.80081e+01
       H -9.90851e+00 -8.38051e+00 -1.71908e+01
       H -9.43857e+00 -9.53783e+00 -1.79479e+01
       O -1.82851e+01 -1.16779e+01 -1.99735e+01
       H -1.88803e+01 -1.16861e+01 -2.07086e+01
       H -1.84225e+01 -1.25782e+01 -1.96383e+01
       O -2.73519e+01 -5.78704e+00  2.91332e+01
       H -2.82391e+01 -6.23371e+00  2.90379e+01
       H -2.71169e+01 -6.28167e+00  2.99337e+01
       O -1.27888e+01 -1.34499e+01 -2.56138e+01
       H -1.19381e+01 -1.33740e+01 -2.60133e+01
       H -1.34841e+01 -1.30200e+01 -2.62653e+01
       O -9.78503e+00 -1.55663e+01 -2.07552e+01
       H -1.00537e+01 -1.59349e+01 -2.16497e+01
       H -9.96859e+00 -1.46017e+01 -2.08255e+01
       O -7.72562e+00  1.85307e+01 -4.25424e+00
       H -6.96623e+00  1.88751e+01 -3.76931e+00
       H -7.29638e+00  1.79449e+01 -4.86209e+00
       O -1.33669e+01 -3.18018e+00 -4.15289e+00
       H -1.39959e+01 -3.20574e+00 -3.43305e+00
       H -1.36870e+01 -2.41317e+00 -4.70249e+00
       O -1.06363e+01 -8.73589e+00  1.07076e+00
       H -1.03611e+01 -7.98800e+00  5.41510e-01
       H -1.11697e+01 -9.19415e+00  4.47191e-01
       O -3.98743e+00 -2.34153e+01 -2.74776e+01
       H -3.28707e+00 -2.28473e+01 -2.71874e+01
       H -4.69520e+00 -2.33030e+01 -2.67420e+01
       O  1.03462e+01 -1.84069e+00 -1.19564e+01
       H  9.83417e+00 -1.26256e+00 -1.25413e+01
       H  1.11977e+01 -1.98116e+00 -1.25381e+01
       O -1.23808e+01 -1.95684e+00  2.11953e+01
       H -1.28789e+01 -2.80197e+00  2.12337e+01
       H -1.24516e+01 -1.80949e+00  2.02476e+01
       O  2.64819e+01 -1.97609e+01  1.86556e+01
       H  2.70104e+01 -1.94582e+01  1.79622e+01
       H  2.59950e+01 -2.04062e+01  1.81013e+01
       O -2.62503e+01 -1.37727e+01  1.29352e+01
       H -2.59586e+01 -1.29750e+01  1.25198e+01
       H -2.63410e+01 -1.35038e+01  1.38153e+01
       O -1.33291e+01  2.27298e+01 -1.01342e+01
       H -1.39725e+01  2.20166e+01 -9.79009e+00
       H -1.24584e+01  2.24563e+01 -9.85529e+00
       O -1.87908e+01 -8.48839e+00  1.79244e+01
       H -1.94359e+01 -8.60618e+00  1.86883e+01
       H -1.85749e+01 -7.58224e+00  1.80439e+01
       O  2.17480e+01 -2.49095e+01  1.26737e+01
       H  2.10012e+01 -2.42977e+01  1.25893e+01
       H  2.19735e+01 -2.46960e+01  1.35701e+01
       O  1.05782e+01 -2.99039e+01 -1.78849e+01
       H  1.02622e+01 -2.92129e+01 -1.72800e+01
       H  1.15072e+01 -2.96361e+01 -1.80142e+01
       O -7.63870e+00 -1.73177e+01 -1.16336e+00
       H -8.66616e+00 -1.72919e+01 -1.24256e+00
       H -7.43299e+00 -1.63321e+01 -1.12604e+00
       O  1.04086e+01 -1.66059e+01 -1.11269e+00
       H  1.09810e+01 -1.62717e+01 -3.48395e-01
       H  1.07719e+01 -1.60441e+01 -1.82313e+00
       O -8.69480e+00  1.99520e+01 -2.28660e+01
       H -8.60748e+00  1.95438e+01  2.54817e+01
       H -9.45991e+00  1.95275e+01  2.43158e+01
       O  1.71467e+01 -1.66180e+01  2.43941e+01
       H  1.75241e+01 -1.63282e+01 -2.38660e+01
       H  1.72237e+01 -1.75799e+01 -2.32686e+01
       O -5.01286e-01  1.54857e+01  3.11575e+00
       H -3.73525e-01  1.63938e+01  2.78015e+00
       H  4.06840e-01  1.51948e+01  3.30351e+00
       O -1.28350e+01  2.17949e+01  1.79877e+01
       H -1.37128e+01  2.22176e+01  1.77565e+01
       H -1.27412e+01  2.21551e+01  1.88496e+01
       O  2.26809e+01 -7.44923e+00  3.93050e+01
       H  2.35025e+01 -7.20597e+00  3.96916e+01
       H  2.21305e+01 -7.42908e+00  4.00941e+01
       O  1.91586e+01 -1.11130e+01 -1.61943e+01
       H  1.82793e+01 -1.15780e+01 -1.63780e+01
       H  1.97859e+01 -1.18811e+01 -1.62739e+01
       O -4.63858e+00 -1.32779e+01 -1.63672e+01
       H -4.89208e+00 -1.23946e+01 -1.61715e+01
       H -5.53189e+00 -1.36584e+01 -1.64558e+01
       O -8.30251e+00 -1.29732e+01  2.20748e+00
       H -8.73463e+00  3.46914e+01  3.01824e+00
       H -8.51165e+00 -1.21831e+01  1.72942e+00
       O  2.80440e+01 -4.66701e+00  2.25315e+01
       H  2.83810e+01 -4.22092e+00  2.17290e+01
       H  2.86090e+01 -4.30126e+00  2.32123e+01
       O -2.54007e+01  6.50380e+00 -4.49383e+00
       H -2.45389e+01  6.88604e+00 -4.83287e+00
       H -2.59955e+01  7.20741e+00 -4.85881e+00
       O  1.72934e+01 -8.69587e+00 -1.36565e+01
       H  1.77570e+01 -7.87905e+00 -1.39010e+01
       H  1.80489e+01 -9.27860e+00 -1.35071e+01
       O -1.21975e+01 -1.05491e+01  2.79141e+01
       H -1.27419e+01 -1.07577e+01  2.87160e+01
       H -1.15132e+01 -9.93290e+00  2.82202e+01
       O -1.56290e+01 -1.29296e+01 -9.19305e-01
       H -1.63208e+01 -1.35252e+01 -5.55378e-01
       H -1.49743e+01 -1.36495e+01 -9.70367e-01
       O  2.18269e+00 -2.22219e+01 -1.43340e+01
       H  1.34060e+00 -2.19087e+01 -1.39500e+01
       H  2.73654e+00 -2.17570e+01 -1.36641e+01
       O -1.96665e+01 -6.44181e+00 -1.11878e+01
       H -2.01361e+01 -6.28087e+00 -1.20045e+01
       H -1.94561e+01 -7.41220e+00 -1.12636e+01
       O -1.94496e+01 -2.05148e+01  2.41766e+01
       H -1.89833e+01 -2.13163e+01  2.37430e+01
       H -2.01807e+01 -2.04489e+01  2.35753e+01
       O  4.91528e+00 -3.15287e+01 -1.14788e+00
       H  4.60668e+00 -3.16911e+01 -1.78675e-01
       H  5.90152e+00 -3.14161e+01 -9.34245e-01
       O -1.38267e+01 -1.28413e+01  1.93141e+01
       H -1.35040e+01 -1.21483e+01  1.87015e+01
       H -1.48110e+01 -1.26634e+01  1.93572e+01
       O  2.81005e+00 -6.06699e+00 -1.21594e+01
       H  2.99390e+00 -6.94968e+00 -1.17466e+01
       H  2.69332e+00 -6.36865e+00 -1.30608e+01
       O -1.30649e+01 -1.07761e+01 -1.40693e+01
       H -1.36296e+01 -1.00233e+01 -1.37055e+01
       H -1.28971e+01 -1.11619e+01 -1.32201e+01
       O  1.84506e+01 -2.36115e+01 -1.24171e+01
       H  1.93643e+01 -2.31902e+01 -1.23753e+01
       H  1.81443e+01 -2.33296e+01 -1.32848e+01
       O -6.54639e+00 -2.09413e+01 -8.09685e+00
       H -7.50163e+00 -2.11626e+01 -8.32314e+00
       H -6.53019e+00 -2.00901e+01 -8.43619e+00
       O -1.75374e+01 -1.34688e+01 -1.68495e+01
       H -1.68911e+01 -1.28086e+01 -1.71365e+01
       H -1.75109e+01 -1.39654e+01 -1.76972e+01
       O  5.66556e-01 -2.37849e+01 -2.67384e+01
       H  1.08223e+00 -2.42772e+01 -2.61301e+01
       H  2.57503e-01 -2.44010e+01 -2.73981e+01
       O  1.61042e+01 -2.28019e+01 -2.01913e+01
       H  1.62182e+01 -2.32387e+01 -2.10855e+01
       H  1.68325e+01 -2.31822e+01 -1.97366e+01
       O  1.57657e+01  2.59963e+01  1.39781e+01
       H  1.53308e+01  2.60487e+01  1.48763e+01
       H  1.51040e+01  2.64261e+01  1.34528e+01
       O -9.86203e+00 -1.51441e+00 -1.20593e+01
       H -1.07257e+01 -1.55091e+00 -1.25769e+01
       H -1.00711e+01 -1.74731e+00 -1.11511e+01
       O  1.24553e+00 -3.66665e+01 -4.42140e+00
       H  5.89943e-01  1.09102e+01 -3.71705e+00
       H  8.13712e-01 -3.61202e+01 -5.12321e+00
       O -7.34711e+00 -1.57946e+01 -2.33366e+01
       H -8.01417e+00 -1.55835e+01 -2.39334e+01
       H -7.47958e+00 -1.49929e+01 -2.27471e+01
       O -1.56159e+01 -3.62393e+01  5.86343e+00
       H -1.56504e+01 -3.52825e+01  6.16334e+00
       H -1.48241e+01 -3.65798e+01  6.39257e+00
       O -2.30578e+00  6.45376e+00 -9.88433e-01
       H -2.30318e+00  7.27716e+00 -1.50280e+00
       H -1.38830e+00  6.18736e+00 -1.23629e+00
       O -2.21327e+01 -7.75594e+00 -6.13405e+00
       H -2.28978e+01 -7.76213e+00 -5.49889e+00
       H -2.13734e+01 -7.40525e+00 -5.58337e+00
       O  2.82474e+01 -1.39278e+01  1.25390e+01
       H  2.78120e+01 -1.30592e+01  1.28079e+01
       H  2.75677e+01 -1.46019e+01  1.28046e+01
       O -7.00671e+00 -1.50525e+01  3.24204e+00
       H -6.31961e+00 -1.53345e+01  2.63495e+00
       H -7.30681e+00 -1.42680e+01  2.76107e+00
       O  1.38720e+01 -1.82111e+01 -4.64622e+00
       H  1.40063e+01 -1.89701e+01 -5.25988e+00
       H  1.29341e+01  2.92261e+01 -4.44331e+00
       O -1.26086e+01  2.13769e+01  3.26281e+00
       H -1.34177e+01  2.17418e+01  2.74929e+00
       H -1.23182e+01  2.21726e+01  3.67746e+00
       O -2.60237e+00 -6.20422e+00 -2.44848e+01
       H -2.51316e+00 -7.03177e+00 -2.39703e+01
       H -1.61069e+00 -5.96961e+00 -2.43670e+01
       O  2.59439e+01 -1.94080e+01  2.26785e+01
       H  2.64238e+01 -1.86220e+01  2.23045e+01
       H  2.49462e+01 -1.93609e+01  2.26063e+01
       O  9.20627e+00  3.85834e+00 -1.09705e+00
       H  8.24260e+00  4.14115e+00 -1.03911e+00
       H  9.56707e+00  4.71504e+00 -7.09169e-01
       O  1.37471e+01 -1.38406e+01 -2.64468e+01
       H  1.42207e+01 -1.41755e+01 -2.56406e+01
       H  1.30184e+01 -1.34372e+01 -2.59858e+01
       O -1.10956e+01  2.59537e+01 -4.14637e+00
       H -1.15520e+01  2.55685e+01 -4.92497e+00
       H -1.12309e+01  2.68613e+01 -4.31764e+00
       O -3.95423e+00 -1.98443e+01 -2.22359e+01
       H -4.40322e+00 -2.03685e+01 -2.28887e+01
       H -3.00788e+00 -2.00191e+01 -2.24454e+01
       O  3.61564e+00 -3.83568e+00 -1.95394e+01
       H  4.38687e+00 -4.22642e+00 -1.90108e+01
       H  3.61955e+00 -4.28810e+00 -2.04177e+01
       O -3.77020e+00 -8.97312e+00  1.30025e+01
       H -4.56077e+00 -8.86735e+00  1.24566e+01
       H -3.89403e+00 -9.83183e+00  1.34129e+01
       O -9.96017e+00 -2.01978e+01 -2.71022e+01
       H -9.57103e+00 -2.01476e+01 -2.80561e+01
       H -1.07496e+01 -2.06910e+01 -2.72268e+01
       O  1.27357e+01 -3.01604e+00 -2.84778e+01
       H  1.26719e+01 -3.73355e+00 -2.91013e+01
       H  1.18284e+01 -2.56219e+00 -2.83799e+01
       O -1.24119e+01 -5.08087e+00  2.16187e+01
       H -1.27204e+01 -5.09324e+00  2.06726e+01
       H -1.16258e+01 -5.62478e+00  2.14768e+01
       O -9.21180e+00 -2.12316e+01 -8.87703e+00
       H -9.37554e+00 -2.05909e+01 -9.64262e+00
       H -1.00584e+01 -2.11498e+01 -8.40176e+00
       O -2.19100e+01 -1.04299e+01  2.83836e+01
       H -2.16710e+01 -1.04403e+01  2.93609e+01
       H -2.14084e+01 -9.68240e+00  2.79754e+01
       O  6.32456e+00 -1.10915e+01 -9.23828e+00
       H  5.58095e+00 -1.08163e+01 -9.86762e+00
       H  6.01811e+00 -1.19077e+01 -8.79364e+00
       O -6.15639e+00  2.63653e+00 -8.36648e+00
       H -5.92826e+00  3.59511e+00 -8.13408e+00
       H -5.38281e+00  2.11609e+00 -8.18539e+00
       O -2.26355e+00 -7.06743e-01 -2.99048e+01
       H -2.29533e+00  2.41779e-01 -2.94990e+01
       H -2.99798e+00 -1.10023e+00 -2.94576e+01
       O -2.86421e+00 -1.70373e+01 -1.31760e+01
       H -3.49540e+00 -1.75536e+01 -1.26105e+01
       H -3.31893e+00 -1.61973e+01 -1.30777e+01
       O -4.56632e+00 -9.90002e+00 -2.33585e+01
       H -4.33457e+00 -9.81470e+00 -2.24352e+01
       H -4.52794e+00 -1.08616e+01 -2.34310e+01
       O -3.45797e+00 -9.14143e+00 -1.70994e+01
       H -3.20667e+00 -8.54513e+00 -1.78358e+01
       H -2.57751e+00 -9.47688e+00 -1.70406e+01
       O -8.69516e+00  2.35640e+01 -9.11946e+00
       H -8.95127e+00  2.45305e+01 -9.16887e+00
       H -8.97305e+00  2.33551e+01 -8.21446e+00
       O -1.94211e+00 -2.26926e+01 -6.04585e+00
       H -1.50148e+00 -2.18413e+01 -6.45025e+00
       H -1.88576e+00 -2.24300e+01 -5.11493e+00
       O -3.09722e+00  1.38457e+01 -8.93328e+00
       H -3.81304e+00  1.32456e+01 -8.63988e+00
       H -3.63473e+00  1.44392e+01 -9.39565e+00
       O -6.95897e+00 -2.08600e+01 -2.15014e+01
       H -7.34544e+00 -1.99789e+01 -2.16462e+01
       H -6.66113e+00 -2.10123e+01 -2.24386e+01
       O -2.28332e+01 -1.73019e+01 -1.61389e+01
       H -2.25886e+01 -1.82253e+01 -1.63243e+01
       H -2.23993e+01 -1.72316e+01 -1.52456e+01
       O -1.38014e+01 -1.97681e+01 -1.75111e+01
       H -1.36924e+01 -1.95858e+01 -1.65621e+01
       H -1.47532e+01 -1.99168e+01 -1.75896e+01
       O  1.32364e+01  2.23353e+01 -1.23566e+01
       H  1.40551e+01  2.24163e+01 -1.18172e+01
       H  1.25678e+01  2.19372e+01 -1.17528e+01
       O -8.97426e+00  2.39859e+01 -2.27329e+01
       H -8.10716e+00  2.34437e+01 -2.27085e+01
       H -9.65099e+00  2.33514e+01 -2.24159e+01
       O  2.39843e+01 -2.57078e+01  1.74193e+01
       H  2.39131e+01 -2.63481e+01  1.82505e+01
       H  2.43838e+01 -2.63531e+01  1.67688e+01
       O -1.89818e+00 -7.76162e+00 -2.22979e+01
       H -1.82816e+00 -7.55490e+00 -2.13335e+01
       H -1.71878e+00 -8.67719e+00 -2.22665e+01
       O  1.46999e+01  2.88830e+01 -8.18086e+00
       H  1.55930e+01  2.92445e+01 -7.83162e+00
       H  1.44941e+01  2.80804e+01 -7.65777e+00
       O -2.12007e+01 -9.09296e+00 -8.14068e+00
       H -2.02699e+01 -8.88066e+00 -7.90278e+00
       H -2.16316e+01 -8.66157e+00 -7.39217e+00
       O -2.93995e+01  1.90879e-01 -2.48706e+00
       H -2.94920e+01  1.16417e+00 -2.30235e+00
       H -2.99304e+01 -2.88247e-02 -3.30823e+00
       O -9.11779e+00 -7.52525e+00 -1.51344e+01
       H -8.51454e+00 -7.66281e+00 -1.43619e+01
       H -9.54287e+00 -8.40916e+00 -1.50356e+01
       O -9.96866e+00  1.19862e+01  1.33405e+01
       H -9.36900e+00  1.11953e+01  1.32743e+01
       H -1.05202e+01  1.17121e+01  1.41023e+01
       O  3.39455e+00  2.28724e+01 -4.58391e+00
       H  2.80249e+00 -2.48382e+01 -5.26418e+00
       H  4.20767e+00  2.24808e+01 -4.95147e+00
       O -2.00966e+01 -1.15274e+01 -7.80670e+00
       H -1.93742e+01 -1.16995e+01 -8.40054e+00
       H -2.05786e+01 -1.07559e+01 -8.15053e+00
       O -2.14765e+01  1.56899e+01 -1.39771e+01
       H -2.18138e+01  1.64053e+01 -1.45497e+01
       H -2.15100e+01  1.48791e+01 -1.44870e+01
       O -1.83925e+01 -1.20810e+01 -1.01939e+01
       H -1.77023e+01 -1.25022e+01 -1.07377e+01
       H -1.89394e+01 -1.20131e+01 -1.09377e+01
       O -7.23820e+00 -6.90955e+00 -1.68991e+01
       H -6.93378e+00 -6.27141e+00 -1.62207e+01
       H -8.00841e+00 -7.29149e+00 -1.64394e+01
       O -7.29826e+00 -1.33164e+01 -2.18736e+01
       H -6.78257e+00 -1.25306e+01 -2.16725e+01
       H -7.94550e+00 -1.28208e+01 -2.22910e+01
       O -5.75651e+00 -2.57539e+01 -1.83503e+01
       H -5.43145e+00 -2.48211e+01 -1.82285e+01
       H -4.92420e+00 -2.62697e+01 -1.82504e+01
       O  1.70239e+01 -1.16471e+01 -1.25895e+01
       H  1.69395e+01 -1.10469e+01 -1.17578e+01
       H  1.73866e+01 -1.23752e+01 -1.21308e+01
       O -9.40357e+00 -7.23248e+00 -2.53956e+01
       H -1.02958e+01 -7.29019e+00 -2.50445e+01
       H -8.87481e+00 -6.65978e+00 -2.47741e+01
       O -2.94045e+01 -8.97039e+00 -1.72462e+01
       H -3.03038e+01 -9.26185e+00 -1.75306e+01
       H -2.90778e+01 -9.74105e+00 -1.66723e+01
       O -5.74922e+00 -1.10633e+01 -4.84752e+00
       H -5.65350e+00 -1.01110e+01 -4.96393e+00