4
# CELL(abcABC): 1000.00000  1000.00000  1000.00000    90.00000    90.00000    90.00000  Step:           0  Bead:       0 positions{angstrom}  cell{angstrom}
       O -3.11886e+00  1.07137e+00  3.55910e-01
       H -3.08121e+00  1.31708e-01  5.05403e-01
       H -3.57972e+00  1.51956e+00  1.08709e+00
       H -3.21808e+00  1.41282e+00 -5.56327e-01
4
# CELL(abcABC): 1000.00000  1000.00000  1000.00000    90.00000    90.00000    90.00000  Step:           1  Bead:       0 positions{angstrom}  cell{angstrom}
       O -3.11735e+00  1.07172e+00  3.55277e-01
       H -3.09054e+00  1.24364e-01  5.10684e-01
       H -3.57829e+00  1.51795e+00  1.08810e+00
       H -3.23415e+00  1.41622e+00 -5.52570e-01
4
# CELL(abcABC): 1000.00000  1000.00000  1000.00000    90.00000    90.00000    90.00000  Step:           2  Bead:       0 positions{angstrom}  cell{angstrom}
       O -3.11628e+00  1.07210e+00  3.54487e-01
       H -3.09924e+00  1.17985e-01  5.18253e-01
       H -3.57270e+00  1.51460e+00  1.08880e+00
       H -3.24805e+00  1.41991e+00 -5.48297e-01
4
# CELL(abcABC): 1000.00000  1000.00000  1000.00000    90.00000    90.00000    90.00000  Step:           3  Bead:       0 positions{angstrom}  cell{angstrom}
       O -3.11551e+00  1.07249e+00  3.53488e-01
       H -3.10655e+00  1.12114e-01  5.29077e-01
       H -3.56499e+00  1.51100e+00  1.09006e+00
       H -3.26060e+00  1.42320e+00 -5.44522e-01
4
# CELL(abcABC): 1000.00000  1000.00000  1000.00000    90.00000    90.00000    90.00000  Step:           4  Bead:       0 positions{angstrom}  cell{angstrom}
       O -3.11511e+00  1.07283e+00  3.52452e-01
       H -3.11311e+00  1.07585e-01  5.39932e-01
       H -3.55450e+00  1.50720e+00  1.09114e+00
       H -3.27097e+00  1.42616e+00 -5.40016e-01
4
# CELL(abcABC): 1000.00000  1000.00000  1000.00000    90.00000    90.00000    90.00000  Step:           5  Bead:       0 positions{angstrom}  cell{angstrom}
       O -3.11492e+00  1.07288e+00  3.51347e-01
       H -3.11938e+00  1.06264e-01  5.51276e-01
       H -3.54286e+00  1.50428e+00  1.09396e+00
       H -3.27926e+00  1.42954e+00 -5.36640e-01
4
# CELL(abcABC): 1000.00000  1000.00000  1000.00000    90.00000    90.00000    90.00000  Step:           6  Bead:       0 positions{angstrom}  cell{angstrom}
       O -3.11494e+00  1.07280e+00  3.50181e-01
       H -3.12443e+00  1.08652e-01  5.62107e-01
       H -3.53030e+00  1.49991e+00  1.09683e+00
       H -3.28658e+00  1.43280e+00 -5.31829e-01
4
# CELL(abcABC): 1000.00000  1000.00000  1000.00000    90.00000    90.00000    90.00000  Step:           7  Bead:       0 positions{angstrom}  cell{angstrom}
       O -3.11529e+00  1.07239e+00  3.48724e-01
       H -3.12677e+00  1.14351e-01  5.74380e-01
       H -3.51668e+00  1.49573e+00  1.10194e+00
       H -3.29230e+00  1.43778e+00 -5.26083e-01
4
# CELL(abcABC): 1000.00000  1000.00000  1000.00000    90.00000    90.00000    90.00000  Step:           8  Bead:       0 positions{angstrom}  cell{angstrom}
       O -3.11600e+00  1.07177e+00  3.47228e-01
       H -3.12673e+00  1.22879e-01  5.85927e-01
       H -3.50100e+00  1.49145e+00  1.10804e+00
       H -3.29661e+00  1.44338e+00 -5.19978e-01
4
# CELL(abcABC): 1000.00000  1000.00000  1000.00000    90.00000    90.00000    90.00000  Step:           9  Bead:       0 positions{angstrom}  cell{angstrom}
       O -3.11704e+00  1.07105e+00  3.45511e-01
       H -3.12514e+00  1.32539e-01  5.98375e-01
       H -3.48334e+00  1.48835e+00  1.11653e+00
       H -3.29939e+00  1.44826e+00 -5.13663e-01
4
# CELL(abcABC): 1000.00000  1000.00000  1000.00000    90.00000    90.00000    90.00000  Step:          10  Bead:       0 positions{angstrom}  cell{angstrom}
       O -3.11835e+00  1.07012e+00  3.43841e-01
       H -3.12176e+00  1.43187e-01  6.09702e-01
       H -3.46460e+00  1.48707e+00  1.12599e+00
       H -3.30070e+00  1.45360e+00 -5.07943e-01
4
# CELL(abcABC): 1000.00000  1000.00000  1000.00000    90.00000    90.00000    90.00000  Step:          11  Bead:       0 positions{angstrom}  cell{angstrom}
       O -3.11993e+00  1.06914e+00  3.42267e-01
       H -3.11638e+00  1.54465e-01  6.19311e-01
       H -3.44621e+00  1.48664e+00  1.13642e+00
       H -3.29947e+00  1.45834e+00 -5.03004e-01
4
# CELL(abcABC): 1000.00000  1000.00000  1000.00000    90.00000    90.00000    90.00000  Step:          12  Bead:       0 positions{angstrom}  cell{angstrom}
       O -3.12191e+00  1.06824e+00  3.40759e-01
       H -3.10786e+00  1.64267e-01  6.28227e-01
       H -3.42692e+00  1.48600e+00  1.14675e+00
       H -3.29581e+00  1.46344e+00 -4.98309e-01
4
# CELL(abcABC): 1000.00000  1000.00000  1000.00000    90.00000    90.00000    90.00000  Step:          13  Bead:       0 positions{angstrom}  cell{angstrom}
       O -3.12424e+00  1.06747e+00  3.39257e-01
       H -3.09741e+00  1.72329e-01  6.37102e-01
       H -3.40537e+00  1.48614e+00  1.15749e+00
       H -3.29089e+00  1.46759e+00 -4.94084e-01
4
# CELL(abcABC): 1000.00000  1000.00000  1000.00000    90.00000    90.00000    90.00000  Step:          14  Bead:       0 positions{angstrom}  cell{angstrom}
       O -3.12689e+00  1.06683e+00  3.37775e-01
       H -3.08377e+00  1.77036e-01  6.46201e-01
       H -3.38239e+00  1.48767e+00  1.16811e+00
       H -3.28533e+00  1.47138e+00 -4.90285e-01
4
# CELL(abcABC): 1000.00000  1000.00000  1000.00000    90.00000    90.00000    90.00000  Step:          15  Bead:       0 positions{angstrom}  cell{angstrom}
       O -3.12973e+00  1.06628e+00  3.36174e-01
       H -3.07041e+00  1.77972e-01  6.57241e-01
       H -3.35916e+00  1.49039e+00  1.17829e+00
       H -3.27686e+00  1.47655e+00 -4.86090e-01
4
# CELL(abcABC): 1000.00000  1000.00000  1000.00000    90.00000    90.00000    90.00000  Step:          16  Bead:       0 positions{angstrom}  cell{angstrom}
       O -3.13283e+00  1.06582e+00  3.34726e-01
       H -3.05455e+00  1.75728e-01  6.67485e-01
       H -3.33538e+00  1.49470e+00  1.18727e+00
       H -3.26738e+00  1.48181e+00 -4.82322e-01
4
# CELL(abcABC): 1000.00000  1000.00000  1000.00000    90.00000    90.00000    90.00000  Step:          17  Bead:       0 positions{angstrom}  cell{angstrom}
       O -3.13599e+00  1.06547e+00  3.33491e-01
       H -3.03682e+00  1.72029e-01  6.77106e-01
       H -3.31208e+00  1.50002e+00  1.19341e+00
       H -3.25813e+00  1.48571e+00 -4.78484e-01
4
# CELL(abcABC): 1000.00000  1000.00000  1000.00000    90.00000    90.00000    90.00000  Step:          18  Bead:       0 positions{angstrom}  cell{angstrom}
       O -3.13923e+00  1.06509e+00  3.32533e-01
       H -3.01933e+00  1.68329e-01  6.85607e-01
       H -3.28738e+00  1.50550e+00  1.19714e+00
       H -3.24900e+00  1.48988e+00 -4.75503e-01
4
# CELL(abcABC): 1000.00000  1000.00000  1000.00000    90.00000    90.00000    90.00000  Step:          19  Bead:       0 positions{angstrom}  cell{angstrom}
       O -3.14259e+00  1.06477e+00  3.31885e-01
       H -3.00101e+00  1.64678e-01  6.92822e-01
       H -3.26342e+00  1.51044e+00  1.19760e+00
       H -3.23786e+00  1.49368e+00 -4.72903e-01
4
# CELL(abcABC): 1000.00000  1000.00000  1000.00000    90.00000    90.00000    90.00000  Step:          20  Bead:       0 positions{angstrom}  cell{angstrom}
       O -3.14593e+00  1.06445e+00  3.31658e-01
       H -2.98260e+00  1.62579e-01  6.96455e-01
       H -3.24067e+00  1.51548e+00  1.19569e+00
       H -3.22599e+00  1.49580e+00 -4.71019e-01
4
# CELL(abcABC): 1000.00000  1000.00000  1000.00000    90.00000    90.00000    90.00000  Step:          21  Bead:       0 positions{angstrom}  cell{angstrom}
       O -3.14928e+00  1.06406e+00  3.31880e-01
       H -2.96501e+00  1.61718e-01  6.96407e-01
       H -3.21683e+00  1.52110e+00  1.19232e+00
       H -3.21434e+00  1.49737e+00 -4.71125e-01
4
# CELL(abcABC): 1000.00000  1000.00000  1000.00000    90.00000    90.00000    90.00000  Step:          22  Bead:       0 positions{angstrom}  cell{angstrom}
       O -3.15257e+00  1.06348e+00  3.32575e-01
       H -2.94933e+00  1.62111e-01  6.94654e-01
       H -3.19155e+00  1.52705e+00  1.18520e+00
       H -3.20304e+00  1.50019e+00 -4.73276e-01
4
# CELL(abcABC): 1000.00000  1000.00000  1000.00000    90.00000    90.00000    90.00000  Step:          23  Bead:       0 positions{angstrom}  cell{angstrom}
       O -3.15574e+00  1.06277e+00  3.33800e-01
       H -2.93464e+00  1.65366e-01  6.89693e-01
       H -3.16617e+00  1.53376e+00  1.17691e+00
       H -3.19282e+00  1.50154e+00 -4.79475e-01
4
# CELL(abcABC): 1000.00000  1000.00000  1000.00000    90.00000    90.00000    90.00000  Step:          24  Bead:       0 positions{angstrom}  cell{angstrom}
       O -3.15874e+00  1.06183e+00  3.35320e-01
       H -2.92077e+00  1.69806e-01  6.82210e-01
       H -3.14131e+00  1.54199e+00  1.16795e+00
       H -3.18394e+00  1.50374e+00 -4.87159e-01
4
# CELL(abcABC): 1000.00000  1000.00000  1000.00000    90.00000    90.00000    90.00000  Step:          25  Bead:       0 positions{angstrom}  cell{angstrom}
       O -3.16147e+00  1.06087e+00  3.36967e-01
       H -2.90852e+00  1.75081e-01  6.73441e-01
       H -3.11778e+00  1.55011e+00  1.15884e+00
       H -3.17637e+00  1.50554e+00 -4.95434e-01
4
# CELL(abcABC): 1000.00000  1000.00000  1000.00000    90.00000    90.00000    90.00000  Step:          26  Bead:       0 positions{angstrom}  cell{angstrom}
       O -3.16393e+00  1.05992e+00  3.38734e-01
       H -2.89791e+00  1.81008e-01  6.62306e-01
       H -3.09503e+00  1.55851e+00  1.14974e+00
       H -3.17065e+00  1.50625e+00 -5.03237e-01
4
# CELL(abcABC): 1000.00000  1000.00000  1000.00000    90.00000    90.00000    90.00000  Step:          27  Bead:       0 positions{angstrom}  cell{angstrom}
       O -3.16622e+00  1.05894e+00  3.40599e-01
       H -2.88909e+00  1.88503e-01  6.49347e-01
       H -3.07340e+00  1.56663e+00  1.14093e+00
       H -3.16472e+00  1.50631e+00 -5.11073e-01
4
# CELL(abcABC): 1000.00000  1000.00000  1000.00000    90.00000    90.00000    90.00000  Step:          28  Bead:       0 positions{angstrom}  cell{angstrom}
       O -3.16819e+00  1.05800e+00  3.42403e-01
       H -2.88274e+00  1.94090e-01  6.35660e-01
       H -3.05236e+00  1.57537e+00  1.13335e+00
       H -3.16085e+00  1.50689e+00 -5.18446e-01
4
# CELL(abcABC): 1000.00000  1000.00000  1000.00000    90.00000    90.00000    90.00000  Step:          29  Bead:       0 positions{angstrom}  cell{angstrom}
       O -3.16993e+00  1.05713e+00  3.44172e-01
       H -2.87689e+00  1.98685e-01  6.20520e-01
       H -3.03352e+00  1.58435e+00  1.12684e+00
       H -3.15802e+00  1.50705e+00 -5.24869e-01
4
# CELL(abcABC): 1000.00000  1000.00000  1000.00000    90.00000    90.00000    90.00000  Step:          30  Bead:       0 positions{angstrom}  cell{angstrom}
       O -3.17141e+00  1.05634e+00  3.45812e-01
       H -2.87158e+00  2.02085e-01  6.06627e-01
       H -3.01627e+00  1.59327e+00  1.12177e+00
       H -3.15704e+00  1.50726e+00 -5.31947e-01
4
# CELL(abcABC): 1000.00000  1000.00000  1000.00000    90.00000    90.00000    90.00000  Step:          31  Bead:       0 positions{angstrom}  cell{angstrom}
       O -3.17278e+00  1.05569e+00  3.47397e-01
       H -2.86536e+00  2.02724e-01  5.93863e-01
       H -2.99988e+00  1.60290e+00  1.11686e+00
       H -3.15787e+00  1.50742e+00 -5.39428e-01
4
# CELL(abcABC): 1000.00000  1000.00000  1000.00000    90.00000    90.00000    90.00000  Step:          32  Bead:       0 positions{angstrom}  cell{angstrom}
       O -3.17388e+00  1.05541e+00  3.48678e-01
       H -2.86060e+00  1.98275e-01  5.82959e-01
       H -2.98456e+00  1.61295e+00  1.11369e+00
       H -3.16049e+00  1.50614e+00 -5.45684e-01
4
# CELL(abcABC): 1000.00000  1000.00000  1000.00000    90.00000    90.00000    90.00000  Step:          33  Bead:       0 positions{angstrom}  cell{angstrom}
       O -3.17470e+00  1.05558e+00  3.49741e-01
       H -2.85709e+00  1.90302e-01  5.74631e-01
       H -2.97062e+00  1.62060e+00  1.11111e+00
       H -3.16499e+00  1.50384e+00 -5.51651e-01
4
# CELL(abcABC): 1000.00000  1000.00000  1000.00000    90.00000    90.00000    90.00000  Step:          34  Bead:       0 positions{angstrom}  cell{angstrom}
       O -3.17508e+00  1.05607e+00  3.50815e-01
       H -2.85415e+00  1.80193e-01  5.67400e-01
       H -2.96038e+00  1.62590e+00  1.10866e+00
       H -3.17209e+00  1.50090e+00 -5.59015e-01
4
# CELL(abcABC): 1000.00000  1000.00000  1000.00000    90.00000    90.00000    90.00000  Step:          35  Bead:       0 positions{angstrom}  cell{angstrom}
       O -3.17517e+00  1.05675e+00  3.51820e-01
       H -2.85091e+00  1.69206e-01  5.60516e-01
       H -2.95330e+00  1.63001e+00  1.10659e+00
       H -3.18103e+00  1.49687e+00 -5.66027e-01
4
# CELL(abcABC): 1000.00000  1000.00000  1000.00000    90.00000    90.00000    90.00000  Step:          36  Bead:       0 positions{angstrom}  cell{angstrom}
       O -3.17493e+00  1.05752e+00  3.52784e-01
       H -2.84921e+00  1.58697e-01  5.54022e-01
       H -2.94801e+00  1.63315e+00  1.10342e+00
       H -3.19169e+00  1.49212e+00 -5.71649e-01
4
# CELL(abcABC): 1000.00000  1000.00000  1000.00000    90.00000    90.00000    90.00000  Step:          37  Bead:       0 positions{angstrom}  cell{angstrom}
       O -3.17441e+00  1.05842e+00  3.53567e-01
       H -2.84894e+00  1.50595e-01  5.50084e-01
       H -2.94403e+00  1.63342e+00  1.09963e+00
       H -3.20432e+00  1.48557e+00 -5.76359e-01
4
# CELL(abcABC): 1000.00000  1000.00000  1000.00000    90.00000    90.00000    90.00000  Step:          38  Bead:       0 positions{angstrom}  cell{angstrom}
       O -3.17338e+00  1.05934e+00  3.54419e-01
       H -2.85191e+00  1.44721e-01  5.45690e-01
       H -2.94153e+00  1.63053e+00  1.09581e+00
       H -3.22022e+00  1.47974e+00 -5.81670e-01
4
# CELL(abcABC): 1000.00000  1000.00000  1000.00000    90.00000    90.00000    90.00000  Step:          39  Bead:       0 positions{angstrom}  cell{angstrom}
       O -3.17219e+00  1.06034e+00  3.55027e-01
       H -2.85641e+00  1.41194e-01  5.42552e-01
       H -2.93979e+00  1.62476e+00  1.09372e+00
       H -3.23626e+00  1.47315e+00 -5.86089e-01
4
# CELL(abcABC): 1000.00000  1000.00000  1000.00000    90.00000    90.00000    90.00000  Step:          40  Bead:       0 positions{angstrom}  cell{angstrom}
       O -3.17077e+00  1.06121e+00  3.55257e-01
       H -2.86307e+00  1.40986e-01  5.41147e-01
       H -2.93858e+00  1.61790e+00  1.09477e+00
       H -3.25341e+00  1.46650e+00 -5.89390e-01
4
# CELL(abcABC): 1000.00000  1000.00000  1000.00000    90.00000    90.00000    90.00000  Step:          41  Bead:       0 positions{angstrom}  cell{angstrom}
       O -3.16910e+00  1.06193e+00  3.55203e-01
       H -2.87203e+00  1.44544e-01  5.40134e-01
       H -2.93730e+00  1.61053e+00  1.09811e+00
       H -3.27228e+00  1.45880e+00 -5.90850e-01
4
# CELL(abcABC): 1000.00000  1000.00000  1000.00000    90.00000    90.00000    90.00000  Step:          42  Bead:       0 positions{angstrom}  cell{angstrom}
       O -3.16733e+00  1.06270e+00  3.54945e-01
       H -2.88118e+00  1.48663e-01  5.39691e-01
       H -2.93608e+00  1.60259e+00  1.10403e+00
       H -3.29235e+00  1.45049e+00 -5.92235e-01
4
# CELL(abcABC): 1000.00000  1000.00000  1000.00000    90.00000    90.00000    90.00000  Step:          43  Bead:       0 positions{angstrom}  cell{angstrom}
       O -3.16539e+00  1.06335e+00  3.54444e-01
       H -2.89186e+00  1.55293e-01  5.39847e-01
       H -2.93494e+00  1.59547e+00  1.11241e+00
       H -3.31364e+00  1.44069e+00 -5.92816e-01
4
# CELL(abcABC): 1000.00000  1000.00000  1000.00000    90.00000    90.00000    90.00000  Step:          44  Bead:       0 positions{angstrom}  cell{angstrom}
       O -3.16329e+00  1.06405e+00  3.53705e-01
       H -2.90313e+00  1.61862e-01  5.40429e-01
       H -2.93394e+00  1.58736e+00  1.12221e+00
       H -3.33664e+00  1.43107e+00 -5.91482e-01
4
# CELL(abcABC): 1000.00000  1000.00000  1000.00000    90.00000    90.00000    90.00000  Step:          45  Bead:       0 positions{angstrom}  cell{angstrom}
       O -3.16101e+00  1.06488e+00  3.52818e-01
       H -2.91527e+00  1.68036e-01  5.41480e-01
       H -2.93249e+00  1.57795e+00  1.13267e+00
       H -3.36219e+00  1.42120e+00 -5.88897e-01
4
# CELL(abcABC): 1000.00000  1000.00000  1000.00000    90.00000    90.00000    90.00000  Step:          46  Bead:       0 positions{angstrom}  cell{angstrom}
       O -3.15871e+00  1.06589e+00  3.51787e-01
       H -2.92736e+00  1.73159e-01  5.43288e-01
       H -2.93141e+00  1.56692e+00  1.14361e+00
       H -3.38765e+00  1.41093e+00 -5.85289e-01
4
# CELL(abcABC): 1000.00000  1000.00000  1000.00000    90.00000    90.00000    90.00000  Step:          47  Bead:       0 positions{angstrom}  cell{angstrom}
       O -3.15637e+00  1.06703e+00  3.50741e-01
       H -2.93889e+00  1.75358e-01  5.46543e-01
       H -2.93045e+00  1.55535e+00  1.15416e+00
       H -3.41429e+00  1.40234e+00 -5.82493e-01
4
# CELL(abcABC): 1000.00000  1000.00000  1000.00000    90.00000    90.00000    90.00000  Step:          48  Bead:       0 positions{angstrom}  cell{angstrom}
       O -3.15401e+00  1.06849e+00  3.49584e-01
       H -2.94915e+00  1.73331e-01  5.51200e-01
       H -2.92974e+00  1.54368e+00  1.16400e+00
       H -3.44217e+00  1.39285e+00 -5.78620e-01
4
# CELL(abcABC): 1000.00000  1000.00000  1000.00000    90.00000    90.00000    90.00000  Step:          49  Bead:       0 positions{angstrom}  cell{angstrom}
       O -3.15171e+00  1.07016e+00  3.48254e-01
       H -2.95851e+00  1.67838e-01  5.57286e-01
       H -2.92805e+00  1.53116e+00  1.17362e+00
       H -3.47093e+00  1.38436e+00 -5.73219e-01
4
# CELL(abcABC): 1000.00000  1000.00000  1000.00000    90.00000    90.00000    90.00000  Step:          50  Bead:       0 positions{angstrom}  cell{angstrom}
       O -3.14927e+00  1.07203e+00  3.47017e-01
       H -2.96749e+00  1.60270e-01  5.63531e-01
       H -2.92828e+00  1.51755e+00  1.18262e+00
       H -3.50050e+00  1.37581e+00 -5.68822e-01
4
# CELL(abcABC): 1000.00000  1000.00000  1000.00000    90.00000    90.00000    90.00000  Step:          51  Bead:       0 positions{angstrom}  cell{angstrom}
       O -3.14687e+00  1.07393e+00  3.45835e-01
       H -2.97629e+00  1.51211e-01  5.69305e-01
       H -2.92898e+00  1.50415e+00  1.19056e+00
       H -3.52919e+00  1.36807e+00 -5.63771e-01
4
# CELL(abcABC): 1000.00000  1000.00000  1000.00000    90.00000    90.00000    90.00000  Step:          52  Bead:       0 positions{angstrom}  cell{angstrom}
       O -3.14447e+00  1.07586e+00  3.44850e-01
       H -2.98515e+00  1.42124e-01  5.74562e-01
       H -2.93003e+00  1.49043e+00  1.19631e+00
       H -3.55731e+00  1.36029e+00 -5.59153e-01
4
# CELL(abcABC): 1000.00000  1000.00000  1000.00000    90.00000    90.00000    90.00000  Step:          53  Bead:       0 positions{angstrom}  cell{angstrom}
       O -3.14214e+00  1.07758e+00  3.43946e-01
       H -2.99320e+00  1.34962e-01  5.77922e-01
       H -2.93133e+00  1.47880e+00  1.20177e+00
       H -3.58494e+00  1.35174e+00 -5.53607e-01
4
# CELL(abcABC): 1000.00000  1000.00000  1000.00000    90.00000    90.00000    90.00000  Step:          54  Bead:       0 positions{angstrom}  cell{angstrom}
       O -3.13985e+00  1.07913e+00  3.42908e-01
       H -3.00113e+00  1.29227e-01  5.81057e-01
       H -2.93286e+00  1.46890e+00  1.20713e+00
       H -3.61178e+00  1.34277e+00 -5.45643e-01
4
# CELL(abcABC): 1000.00000  1000.00000  1000.00000    90.00000    90.00000    90.00000  Step:          55  Bead:       0 positions{angstrom}  cell{angstrom}
       O -3.13770e+00  1.08038e+00  3.41982e-01
       H -3.00940e+00  1.26666e-01  5.83408e-01
       H -2.93397e+00  1.46038e+00  1.21229e+00
       H -3.63654e+00  1.33404e+00 -5.38453e-01
4
# CELL(abcABC): 1000.00000  1000.00000  1000.00000    90.00000    90.00000    90.00000  Step:          56  Bead:       0 positions{angstrom}  cell{angstrom}
       O -3.13574e+00  1.08124e+00  3.41218e-01
       H -3.01513e+00  1.27726e-01  5.84645e-01
       H -2.93484e+00  1.45304e+00  1.21537e+00
       H -3.66105e+00  1.32670e+00 -5.30640e-01
4
# CELL(abcABC): 1000.00000  1000.00000  1000.00000    90.00000    90.00000    90.00000  Step:          57  Bead:       0 positions{angstrom}  cell{angstrom}
       O -3.13394e+00  1.08169e+00  3.40576e-01
       H -3.01868e+00  1.32652e-01  5.84627e-01
       H -2.93620e+00  1.44686e+00  1.21847e+00
       H -3.68484e+00  1.32081e+00 -5.23526e-01
4
# CELL(abcABC): 1000.00000  1000.00000  1000.00000    90.00000    90.00000    90.00000  Step:          58  Bead:       0 positions{angstrom}  cell{angstrom}
       O -3.13240e+00  1.08184e+00  3.40114e-01
       H -3.02027e+00  1.39582e-01  5.82715e-01
       H -2.93646e+00  1.44239e+00  1.22124e+00
       H -3.70733e+00  1.31594e+00 -5.17052e-01
4
# CELL(abcABC): 1000.00000  1000.00000  1000.00000    90.00000    90.00000    90.00000  Step:          59  Bead:       0 positions{angstrom}  cell{angstrom}
       O -3.13116e+00  1.08165e+00  3.39723e-01
       H -3.01979e+00  1.48552e-01  5.79298e-01
       H -2.93553e+00  1.44017e+00  1.22456e+00
       H -3.72841e+00  1.31218e+00 -5.10745e-01
4
# CELL(abcABC): 1000.00000  1000.00000  1000.00000    90.00000    90.00000    90.00000  Step:          60  Bead:       0 positions{angstrom}  cell{angstrom}
       O -3.13024e+00  1.08130e+00  3.39575e-01
       H -3.01893e+00  1.57935e-01  5.74592e-01
       H -2.93280e+00  1.43899e+00  1.22502e+00
       H -3.74665e+00  1.30957e+00 -5.04157e-01
4
# CELL(abcABC): 1000.00000  1000.00000  1000.00000    90.00000    90.00000    90.00000  Step:          61  Bead:       0 positions{angstrom}  cell{angstrom}
       O -3.12972e+00  1.08087e+00  3.39645e-01
       H -3.01554e+00  1.66263e-01  5.68547e-01
       H -2.92771e+00  1.43915e+00  1.22284e+00
       H -3.76336e+00  1.30794e+00 -4.97035e-01
4
# CELL(abcABC): 1000.00000  1000.00000  1000.00000    90.00000    90.00000    90.00000  Step:          62  Bead:       0 positions{angstrom}  cell{angstrom}
       O -3.12946e+00  1.08049e+00  3.40015e-01
       H -3.01110e+00  1.71984e-01  5.61274e-01
       H -2.92260e+00  1.44028e+00  1.21884e+00
       H -3.77701e+00  1.30705e+00 -4.91653e-01
4
# CELL(abcABC): 1000.00000  1000.00000  1000.00000    90.00000    90.00000    90.00000  Step:          63  Bead:       0 positions{angstrom}  cell{angstrom}
       O -3.12949e+00  1.08004e+00  3.40368e-01
       H -3.00437e+00  1.75975e-01  5.53967e-01
       H -2.91662e+00  1.44207e+00  1.21362e+00
       H -3.78929e+00  1.30837e+00 -4.84714e-01
4
# CELL(abcABC): 1000.00000  1000.00000  1000.00000    90.00000    90.00000    90.00000  Step:          64  Bead:       0 positions{angstrom}  cell{angstrom}
       O -3.12990e+00  1.07967e+00  3.40779e-01
       H -2.99436e+00  1.76928e-01  5.47366e-01
       H -2.90910e+00  1.44500e+00  1.20767e+00
       H -3.80039e+00  1.31044e+00 -4.78688e-01
4
# CELL(abcABC): 1000.00000  1000.00000  1000.00000    90.00000    90.00000    90.00000  Step:          65  Bead:       0 positions{angstrom}  cell{angstrom}
       O -3.13065e+00  1.07932e+00  3.41281e-01
       H -2.98306e+00  1.75130e-01  5.39503e-01
       H -2.89969e+00  1.45051e+00  1.20113e+00
       H -3.80915e+00  1.31231e+00 -4.72261e-01
4
# CELL(abcABC): 1000.00000  1000.00000  1000.00000    90.00000    90.00000    90.00000  Step:          66  Bead:       0 positions{angstrom}  cell{angstrom}
       O -3.13175e+00  1.07893e+00  3.41739e-01
       H -2.96990e+00  1.72972e-01  5.32207e-01
       H -2.88893e+00  1.45583e+00  1.19469e+00
       H -3.81563e+00  1.31534e+00 -4.65788e-01
4
# CELL(abcABC): 1000.00000  1000.00000  1000.00000    90.00000    90.00000    90.00000  Step:          67  Bead:       0 positions{angstrom}  cell{angstrom}
       O -3.13309e+00  1.07865e+00  3.42225e-01
       H -2.95467e+00  1.67618e-01  5.23994e-01
       H -2.87645e+00  1.46246e+00  1.18872e+00
       H -3.82206e+00  1.31849e+00 -4.59312e-01
4
# CELL(abcABC): 1000.00000  1000.00000  1000.00000    90.00000    90.00000    90.00000  Step:          68  Bead:       0 positions{angstrom}  cell{angstrom}
       O -3.13473e+00  1.07831e+00  3.42890e-01
       H -2.93722e+00  1.60664e-01  5.15312e-01
       H -2.86252e+00  1.47022e+00  1.18108e+00
       H -3.82730e+00  1.32304e+00 -4.53560e-01
4
# CELL(abcABC): 1000.00000  1000.00000  1000.00000    90.00000    90.00000    90.00000  Step:          69  Bead:       0 positions{angstrom}  cell{angstrom}
       O -3.13656e+00  1.07801e+00  3.43412e-01
       H -2.91885e+00  1.52008e-01  5.08010e-01
       H -2.84822e+00  1.47900e+00  1.17428e+00
       H -3.83105e+00  1.32768e+00 -4.47741e-01
4
# CELL(abcABC): 1000.00000  1000.00000  1000.00000    90.00000    90.00000    90.00000  Step:          70  Bead:       0 positions{angstrom}  cell{angstrom}
       O -3.13872e+00  1.07743e+00  3.43988e-01
       H -2.89923e+00  1.45106e-01  4.99440e-01
       H -2.83282e+00  1.48925e+00  1.16697e+00
       H -3.83169e+00  1.33361e+00 -4.40995e-01
4
# CELL(abcABC): 1000.00000  1000.00000  1000.00000    90.00000    90.00000    90.00000  Step:          71  Bead:       0 positions{angstrom}  cell{angstrom}
       O -3.14098e+00  1.07672e+00  3.44698e-01
       H -2.87983e+00  1.39317e-01  4.89113e-01
       H -2.81717e+00  1.49942e+00  1.15870e+00
       H -3.83086e+00  1.34047e+00 -4.33677e-01
4
# CELL(abcABC): 1000.00000  1000.00000  1000.00000    90.00000    90.00000    90.00000  Step:          72  Bead:       0 positions{angstrom}  cell{angstrom}
       O -3.14338e+00  1.07567e+00  3.45433e-01
       H -2.86001e+00  1.36855e-01  4.78737e-01
       H -2.80086e+00  1.50988e+00  1.15046e+00
       H -3.82900e+00  1.34905e+00 -4.26728e-01
4
# CELL(abcABC): 1000.00000  1000.00000  1000.00000    90.00000    90.00000    90.00000  Step:          73  Bead:       0 positions{angstrom}  cell{angstrom}
       O -3.14577e+00  1.07442e+00  3.46323e-01
       H -2.84058e+00  1.37781e-01  4.67976e-01
       H -2.78443e+00  1.52049e+00  1.14122e+00
       H -3.82682e+00  1.35747e+00 -4.20852e-01
4
# CELL(abcABC): 1000.00000  1000.00000  1000.00000    90.00000    90.00000    90.00000  Step:          74  Bead:       0 positions{angstrom}  cell{angstrom}
       O -3.14819e+00  1.07287e+00  3.47461e-01
       H -2.82138e+00  1.42471e-01  4.55816e-01
       H -2.76822e+00  1.53057e+00  1.12955e+00
       H -3.82377e+00  1.36724e+00 -4.15094e-01
4
# CELL(abcABC): 1000.00000  1000.00000  1000.00000    90.00000    90.00000    90.00000  Step:          75  Bead:       0 positions{angstrom}  cell{angstrom}
       O -3.15041e+00  1.07117e+00  3.48683e-01
       H -2.80338e+00  1.49649e-01  4.43183e-01
       H -2.75313e+00  1.53919e+00  1.11729e+00
       H -3.82169e+00  1.37843e+00 -4.09593e-01
4
# CELL(abcABC): 1000.00000  1000.00000  1000.00000    90.00000    90.00000    90.00000  Step:          76  Bead:       0 positions{angstrom}  cell{angstrom}
       O -3.15262e+00  1.06920e+00  3.49846e-01
       H -2.78532e+00  1.60102e-01  4.31912e-01
       H -2.73898e+00  1.54677e+00  1.10377e+00
       H -3.81876e+00  1.39165e+00 -4.03272e-01
4
# CELL(abcABC): 1000.00000  1000.00000  1000.00000    90.00000    90.00000    90.00000  Step:          77  Bead:       0 positions{angstrom}  cell{angstrom}
       O -3.15464e+00  1.06712e+00  3.51014e-01
       H -2.76810e+00  1.73773e-01  4.21107e-01
       H -2.72631e+00  1.55342e+00  1.08964e+00
       H -3.81659e+00  1.40438e+00 -3.96863e-01
4
# CELL(abcABC): 1000.00000  1000.00000  1000.00000    90.00000    90.00000    90.00000  Step:          78  Bead:       0 positions{angstrom}  cell{angstrom}
       O -3.15648e+00  1.06505e+00  3.52360e-01
       H -2.75267e+00  1.88059e-01  4.09965e-01
       H -2.71397e+00  1.55939e+00  1.07421e+00
       H -3.81518e+00  1.41701e+00 -3.91662e-01
4
# CELL(abcABC): 1000.00000  1000.00000  1000.00000    90.00000    90.00000    90.00000  Step:          79  Bead:       0 positions{angstrom}  cell{angstrom}
       O -3.15826e+00  1.06316e+00  3.53662e-01
       H -2.73827e+00  2.03035e-01  4.00809e-01
       H -2.70147e+00  1.56317e+00  1.05778e+00
       H -3.81385e+00  1.42821e+00 -3.86743e-01
4
# CELL(abcABC): 1000.00000  1000.00000  1000.00000    90.00000    90.00000    90.00000  Step:          80  Bead:       0 positions{angstrom}  cell{angstrom}
       O -3.16003e+00  1.06146e+00  3.54812e-01
       H -2.72356e+00  2.17280e-01  3.92438e-01
       H -2.68958e+00  1.56549e+00  1.04199e+00
       H -3.81243e+00  1.43867e+00 -3.80828e-01
4
# CELL(abcABC): 1000.00000  1000.00000  1000.00000    90.00000    90.00000    90.00000  Step:          81  Bead:       0 positions{angstrom}  cell{angstrom}
       O -3.16176e+00  1.05985e+00  3.55952e-01
       H -2.70658e+00  2.30370e-01  3.84216e-01
       H -2.67922e+00  1.56872e+00  1.02634e+00
       H -3.81226e+00  1.44792e+00 -3.75051e-01
4
# CELL(abcABC): 1000.00000  1000.00000  1000.00000    90.00000    90.00000    90.00000  Step:          82  Bead:       0 positions{angstrom}  cell{angstrom}
       O -3.16340e+00  1.05864e+00  3.56898e-01
       H -2.68857e+00  2.40179e-01  3.77486e-01
       H -2.66939e+00  1.57005e+00  1.01094e+00
       H -3.81407e+00  1.45601e+00 -3.67955e-01
4
# CELL(abcABC): 1000.00000  1000.00000  1000.00000    90.00000    90.00000    90.00000  Step:          83  Bead:       0 positions{angstrom}  cell{angstrom}
       O -3.16497e+00  1.05761e+00  3.57724e-01
       H -2.67031e+00  2.47576e-01  3.71827e-01
       H -2.66041e+00  1.57145e+00  9.96281e-01
       H -3.81639e+00  1.46344e+00 -3.60731e-01
4
# CELL(abcABC): 1000.00000  1000.00000  1000.00000    90.00000    90.00000    90.00000  Step:          84  Bead:       0 positions{angstrom}  cell{angstrom}
       O -3.16639e+00  1.05681e+00  3.58438e-01
       H -2.65111e+00  2.51621e-01  3.65696e-01
       H -2.65320e+00  1.57313e+00  9.82582e-01
       H -3.82030e+00  1.47045e+00 -3.52241e-01
4
# CELL(abcABC): 1000.00000  1000.00000  1000.00000    90.00000    90.00000    90.00000  Step:          85  Bead:       0 positions{angstrom}  cell{angstrom}