14
# CELL(abcABC): 1000.00000  1000.00000  1000.00000    90.00000    90.00000    90.00000  Step:         364  Bead:       0 positions{angstrom}  cell{angstrom}
       C -7.39863e-01  6.01673e-01 -1.41417e-01
       C  5.99569e-01  5.28368e-02  2.99271e-01
       C -1.85216e+00 -3.55565e-01  2.67047e-01
       C -1.07595e+00  1.96884e+00  5.04773e-01
       H -1.07290e+00  1.96041e+00  1.60747e+00
       H -2.05013e+00  2.33264e+00  2.41938e-01
       H -3.56341e-01  2.74047e+00  3.03385e-01
       H -1.70749e+00 -1.31874e+00 -2.33322e-01
       H -2.83947e+00 -7.10864e-02 -8.18049e-02
       H -1.91010e+00 -4.86381e-01  1.34116e+00
       H  8.80991e-01 -8.51391e-01 -2.69636e-01
       H  6.51811e-01 -2.76245e-01  1.34955e+00
       H  1.46713e+00  7.14668e-01  2.22162e-01
       H -6.68168e-01  7.10715e-01 -1.26243e+00
