11135
# CELL(abcABC):   47.46614    47.46614    47.46614    90.00000    90.00000    90.00000  Step:        2500  Bead:       0 positions{angstrom}  cell{angstrom}
       C -6.75713e+00 -1.67072e+00  2.27905e+00
       H -6.69799e+00 -2.78095e+00  2.67577e+00
       H -7.74419e+00 -1.30739e+00  2.11406e+00
       H -6.44077e+00 -1.00802e+00  3.13134e+00
       C -5.70273e+00 -1.43125e+00  1.27819e+00
       O -5.00312e+00 -2.36089e+00  9.00092e-01
       N -5.55840e+00 -2.04622e-01  7.44096e-01
       H -6.05736e+00  6.03170e-01  1.14012e+00
       C -4.42120e+00  1.16364e-01 -1.75751e-01
       H -4.37409e+00 -7.20671e-01 -7.71840e-01
       C -4.76771e+00  1.31065e+00 -1.17163e+00
       H -3.92991e+00  1.44462e+00 -1.86227e+00
       H -4.89978e+00  2.26397e+00 -6.17759e-01
       C -5.96673e+00  9.94706e-01 -2.00156e+00
       H -6.88647e+00  9.31461e-01 -1.37861e+00
       H -5.73224e+00  4.52424e-02 -2.52433e+00
       C -6.29503e+00  2.09737e+00 -3.02205e+00
       H -5.28652e+00  2.25508e+00 -3.47901e+00
       H -6.48076e+00  2.94131e+00 -2.40086e+00
       C -7.36279e+00  1.89862e+00 -4.01966e+00
       H -7.43426e+00  2.76228e+00 -4.74945e+00
       H -8.34201e+00  1.73969e+00 -3.49576e+00
       N -7.19371e+00  7.00239e-01 -4.91398e+00
       H -6.17097e+00  6.25728e-01 -5.21392e+00
       H -7.87663e+00  7.90301e-01 -5.78342e+00
       H -7.45157e+00 -1.64450e-01 -4.38311e+00
       C -3.13747e+00  2.99607e-01  5.81454e-01
       O -3.03946e+00  1.05275e+00  1.56817e+00
       N -2.08907e+00 -4.71892e-01  1.83708e-01
       H -2.16296e+00 -1.11686e+00 -5.64946e-01
       H -1.17847e+00 -3.10563e-01  6.87901e-01
       O -1.47690e+01 -3.44018e+00 -2.71495e+01
       H -1.46859e+01 -3.93357e+00 -2.79454e+01
       H -1.43764e+01 -2.58959e+00 -2.74424e+01
       O -2.12958e+01 -7.08387e+00 -7.23668e+00
       H -2.19536e+01 -6.49902e+00 -7.63834e+00
       H -2.05699e+01 -7.10691e+00 -7.86090e+00
       O  1.37734e+01 -1.47865e+01 -3.85243e+00
       H  1.28105e+01 -1.46947e+01 -4.06551e+00
       H  1.38218e+01 -1.38954e+01 -3.50341e+00
       O -1.53272e+01 -1.26777e+01 -2.04287e+01
       H -1.45502e+01 -1.32127e+01 -2.01632e+01
       H -1.54880e+01 -1.29346e+01 -2.13413e+01
       O -8.43186e+00 -1.16119e+01 -1.62240e+01
       H -7.85215e+00 -1.20871e+01 -1.55786e+01
       H -7.86096e+00 -1.09299e+01 -1.66700e+01
       O  2.40435e+01 -2.27320e+01  2.61520e+01
       H  2.35663e+01 -2.23598e+01  2.69172e+01
       H  2.49880e+01 -2.27106e+01  2.64917e+01
       O -1.86193e+01 -1.08497e+01 -1.95664e+00
       H -1.93615e+01 -1.02210e+01 -2.13269e+00
       H -1.84067e+01 -1.05641e+01 -9.83586e-01
       O  1.71262e+01 -2.43098e+01 -1.92446e+01
       H  1.63235e+01 -2.44123e+01 -1.86538e+01
       H  1.74645e+01 -2.34673e+01 -1.88790e+01
       O -1.27668e+01 -1.90607e+01 -2.24366e+00
       H -1.22161e+01 -1.93385e+01 -2.96207e+00
       H -1.36037e+01 -1.93098e+01 -2.63857e+00
       O  1.60888e+01 -1.89569e+01 -3.93842e+00
       H  1.60380e+01 -1.98908e+01 -4.28468e+00
       H  1.69008e+01 -1.86710e+01 -4.37303e+00
       O -3.06107e+01 -1.30163e+01 -3.02790e+00
       H -3.08365e+01 -1.35251e+01 -2.20491e+00
       H -3.07190e+01 -1.36688e+01 -3.71084e+00
       O  7.72577e+00 -2.70105e+01 -6.31165e+00
       H  7.91777e+00 -2.68638e+01 -7.23400e+00
       H  8.12632e+00 -2.62469e+01 -5.87405e+00
       O  6.52161e+00  1.08609e+01 -1.03138e+01
       H  6.62110e+00  1.13880e+01 -9.52083e+00
       H  5.58838e+00  1.07352e+01 -1.02987e+01
       O -3.84781e+01 -1.07924e+01 -7.72346e+00
       H -3.76734e+01 -1.03441e+01 -7.42178e+00
       H -3.88319e+01 -1.05040e+01 -8.61374e+00
       O -2.66484e+00 -1.88880e+01 -2.79090e+01
       H -2.11985e+00 -1.95548e+01 -2.74049e+01
       H -3.16011e+00 -1.84010e+01 -2.72290e+01
       O  8.43707e-01 -1.00481e+01 -9.12077e+00
       H  1.01059e+00 -1.09517e+01 -9.24650e+00
       H  1.62155e+00 -9.61751e+00 -9.49652e+00
       O -5.54883e+00 -1.80804e+01  2.45541e-01
       H -5.82748e+00 -1.72622e+01 -1.63845e-01
       H -5.67858e+00 -1.87123e+01 -4.87661e-01
       O -1.51397e+00 -1.62022e+01 -2.83286e+01
       H -2.38641e+00 -1.66670e+01 -2.81745e+01
       H -1.86147e+00 -1.57355e+01 -2.91646e+01
       O -7.32450e+00 -1.90350e+01 -1.18807e+01
       H -8.15456e+00 -1.91720e+01 -1.23502e+01
       H -7.40045e+00 -1.80987e+01 -1.16671e+01
       O -5.75678e+00  1.84633e+01  3.88122e+00
       H -5.31865e+00  1.75498e+01  3.68723e+00
       H -6.73289e+00  1.82225e+01  3.83101e+00
       O -2.62507e+01 -7.66536e+00 -3.14533e+00
       H -2.56235e+01 -8.14280e+00 -3.75917e+00
       H -2.64637e+01 -6.80964e+00 -3.62301e+00
       O -2.89305e+01 -5.47604e+00 -7.13399e+00
       H -2.97720e+01 -5.04044e+00 -7.42124e+00
       H -2.87616e+01 -6.14066e+00 -7.81827e+00
       O  2.50008e+01 -1.48283e+01 -2.30826e+01
       H  2.51644e+01 -1.40305e+01 -2.25998e+01
       H  2.52634e+01 -1.55216e+01 -2.24437e+01
       O -1.76984e+01 -1.18823e+01 -1.35113e+01
       H -1.67941e+01 -1.15479e+01 -1.37687e+01
       H -1.82140e+01 -1.10895e+01 -1.32098e+01
       O -5.93219e+00 -2.08891e+01 -1.42290e+01
       H -6.09481e+00 -2.12310e+01 -1.51145e+01
       H -6.57472e+00 -2.13509e+01 -1.36930e+01
       O -2.01437e+01 -1.39957e+01  2.61357e+01
       H -1.91634e+01 -1.41488e+01  2.63807e+01
       H -2.00160e+01 -1.34581e+01  2.53325e+01
       O -2.79199e+00 -3.82242e+01 -2.18589e+01
       H -3.60302e+00 -3.82276e+01 -2.12849e+01
       H -2.21423e+00 -3.89673e+01 -2.14402e+01
       O -3.60827e+00 -5.54300e+00  1.93956e+01
       H -4.16024e+00 -6.22661e+00  1.90159e+01
       H -4.07045e+00 -5.29489e+00  2.01474e+01
       O -1.41836e+01  8.57105e-01 -3.61894e+00
       H -1.32478e+01  8.79093e-01 -3.40286e+00
       H -1.41538e+01  6.45740e-01 -4.50416e+00
       O -2.26195e+01 -5.49194e+00  2.61925e+01
       H -2.26896e+01 -4.50141e+00  2.60594e+01
       H -2.16805e+01 -5.55982e+00  2.63989e+01
       O -1.78509e+01 -1.56196e+01 -1.96560e+01
       H -1.78216e+01 -1.56733e+01 -2.05900e+01
       H -1.73451e+01 -1.64197e+01 -1.94286e+01
       O  3.14676e+00 -1.20573e+01 -2.08754e+01
       H  3.61980e+00 -1.24300e+01 -2.15557e+01
       H  2.30995e+00 -1.20397e+01 -2.13621e+01
       O -1.58912e+00 -1.10000e+01 -3.01958e+01
       H -2.37850e+00 -1.16082e+01 -3.00768e+01
       H -1.86534e+00 -1.04965e+01 -3.09662e+01
       O -1.87305e+00 -2.30845e+01  3.76154e+00
       H -1.87508e+00 -2.35930e+01  4.54893e+00
       H -2.76036e+00 -2.32791e+01  3.40305e+00
       O -1.94158e+01 -1.65370e+01 -1.49238e+01
       H -1.94060e+01 -1.56841e+01 -1.45583e+01
       H -1.86007e+01 -1.66007e+01 -1.55038e+01
       O -2.67956e+01 -2.44970e+01  1.85854e+01
       H -2.72179e+01 -2.43063e+01  1.77534e+01
       H -2.73060e+01 -2.53227e+01  1.88716e+01
       O -1.71770e+01 -2.44483e+01 -7.05832e+00
       H -1.61854e+01 -2.44549e+01 -7.24866e+00
       H -1.73853e+01 -2.36548e+01 -7.49686e+00
       O  1.55055e+00 -2.95209e+00 -3.38774e+01
       H  1.40517e+00 -3.75729e+00 -3.33174e+01
       H  8.55600e-01 -2.40829e+00 -3.34788e+01
       O -8.45833e+00  5.51700e+00 -1.08594e+01
       H -7.58809e+00  5.12640e+00 -1.06155e+01
       H -8.65495e+00  5.96186e+00 -1.00172e+01
       O -6.93880e+00 -2.38203e+01 -1.61569e+01
       H -6.21617e+00 -2.31530e+01 -1.62188e+01
       H -6.32699e+00 -2.44750e+01 -1.58132e+01
       O  1.36945e+01 -1.96284e+01 -1.12742e+01
       H  1.34862e+01 -1.93936e+01 -1.22329e+01
       H  1.32179e+01 -1.88329e+01 -1.08396e+01
       O -1.13091e+01 -3.57044e+00 -3.68703e+01
       H -1.22895e+01 -3.53679e+00  1.04172e+01
       H -1.12025e+01 -3.10598e+00 -3.60301e+01
       O  1.50939e+01 -2.64829e+01 -1.37755e+01
       H  1.50722e+01 -2.56427e+01 -1.42368e+01
       H  1.59860e+01 -2.68601e+01 -1.40052e+01
       O -1.97982e+01 -9.77271e+00 -2.39188e+01
       H -1.98818e+01 -9.07365e+00 -2.32656e+01
       H -2.06936e+01 -9.60893e+00 -2.44115e+01
       O -2.46990e+01 -2.55056e+01 -1.47016e+01
       H -2.46352e+01 -2.64780e+01 -1.48408e+01
       H -2.49585e+01 -2.54283e+01 -1.38024e+01
       O -1.84948e+00 -1.45560e+01  9.32869e+00
       H -2.18352e+00 -1.49181e+01  1.01746e+01
       H -2.81426e+00 -1.44968e+01  8.93543e+00
       O -1.54032e+01 -1.48638e+01  3.16748e+00
       H -1.44835e+01 -1.51243e+01  3.26143e+00
       H -1.58117e+01 -1.53415e+01  3.87402e+00
       O  5.59836e+00 -1.47666e+01 -1.13919e+01
       H  4.74833e+00 -1.50970e+01 -1.09402e+01
       H  5.52322e+00 -1.52611e+01 -1.21658e+01
       O  8.62774e+00 -5.96714e+00 -1.51050e+01
       H  9.36840e+00 -5.94896e+00 -1.57048e+01
       H  9.05036e+00 -6.39937e+00 -1.43444e+01
       O -2.17521e+01  8.87377e-01 -1.22806e+01
       H -2.25449e+01  1.36832e+00 -1.26498e+01
       H -2.19681e+01 -5.37182e-02 -1.23394e+01
       O -1.46626e+01 -7.44246e+00 -2.57161e+01
       H -1.52939e+01 -6.85853e+00 -2.61356e+01
       H -1.51920e+01 -8.29909e+00 -2.55342e+01
       O -1.58199e+01 -1.00514e+01 -2.20707e+01
       H -1.59867e+01 -1.09899e+01 -2.22100e+01
       H -1.50376e+01 -1.00532e+01 -2.15421e+01
       O -9.85804e+00 -1.18186e+01 -2.42650e+01
       H -1.06314e+01 -1.24404e+01 -2.40483e+01
       H -1.02989e+01 -1.09735e+01 -2.41956e+01
       O -1.26446e+01 -1.70569e+00 -9.43878e+00
       H -1.23524e+01 -1.32894e+00 -8.59983e+00
       H -1.24485e+01 -2.64919e+00 -9.38539e+00
       O  6.52394e+00 -9.43651e+00 -1.81767e+01
       H  6.00906e+00 -8.56878e+00 -1.82662e+01
       H  5.88984e+00 -1.01250e+01 -1.85067e+01
       O -1.32410e+01 -1.09109e+01  3.74648e+00
       H -1.42383e+01 -1.07491e+01  3.91040e+00
       H -1.29079e+01 -9.99622e+00  4.00012e+00
       O -1.91401e+01 -4.35228e+00  1.12830e+00
       H -1.87876e+01 -5.22494e+00  9.41084e-01
       H -1.94723e+01 -4.44198e+00  2.08741e+00
       O -3.26940e+00 -1.61945e+01 -2.07548e+01
       H -4.06702e+00 -1.64228e+01 -2.12001e+01
       H -3.49272e+00 -1.53152e+01 -2.05187e+01
       O -4.64526e+00 -1.98543e+01 -1.18840e+01
       H -4.60829e+00 -2.00966e+01 -1.27952e+01
       H -5.62998e+00 -1.96699e+01 -1.19013e+01
       O  9.09615e-01  2.79448e+01  5.65343e+00
       H  1.59814e-01  2.83057e+01  5.02957e+00
       H  1.42112e+00  2.87920e+01  5.64514e+00
       O -7.76180e+00 -3.17277e+00 -3.20881e+01
       H -7.32839e+00 -3.95739e+00 -3.18480e+01
       H -8.06361e+00 -2.88510e+00 -3.11768e+01
       O -7.79207e+00  2.43217e+01  4.19601e+00
       H -8.67951e+00  2.43094e+01  3.71893e+00
       H -7.76339e+00  2.52735e+01  4.35700e+00
       O -1.64706e+00 -1.01503e+01 -9.91645e+00
       H -6.91263e-01 -1.00768e+01 -9.65719e+00
       H -1.87452e+00 -1.11064e+01 -9.80382e+00
       O  3.46564e+00 -1.09867e+01  1.20574e-01
       H  3.43319e+00 -1.15935e+01 -6.73310e-01
       H  3.19820e+00 -1.01411e+01 -3.01240e-01
       O -1.01693e+00 -9.99296e+00  4.88203e+00
       H -4.12269e-01 -1.03080e+01  4.25887e+00
       H -1.70576e+00 -9.69451e+00  4.29160e+00
       O -1.65968e+01 -1.85158e+00  1.58664e+01
       H -1.71850e+01 -2.56743e+00  1.56356e+01
       H -1.65939e+01 -1.46365e+00  1.49202e+01
       O -1.85125e+01 -9.73755e+00 -9.80746e+00
       H -1.86025e+01 -1.06103e+01 -1.02632e+01
       H -1.75787e+01 -9.69395e+00 -9.56813e+00
       O  4.48207e+00 -1.22038e+01 -1.00096e+01
       H  5.16142e+00 -1.15425e+01 -1.00140e+01
       H  4.91970e+00 -1.29585e+01 -9.62669e+00
       O -1.23025e+01 -2.23038e+01 -1.17934e+01
       H -1.17193e+01 -2.27366e+01 -1.11640e+01
       H -1.29020e+01 -2.17919e+01 -1.12576e+01
       O -3.53577e+01 -2.43472e+01  2.42670e+01
       H -3.56591e+01 -2.49305e+01  2.50096e+01
       H -3.44110e+01 -2.45216e+01  2.41890e+01
       O  2.17356e+01  2.67422e+01  2.50361e+01
       H  2.22512e+01  2.62390e+01  2.43611e+01
       H  2.07928e+01  2.65428e+01  2.48037e+01
       O -2.77283e+00 -1.08381e+01 -1.26813e+01
       H -2.85898e+00 -9.89372e+00 -1.25201e+01
       H -1.80427e+00 -1.08915e+01 -1.24074e+01
       O -9.88248e+00 -1.47619e+01 -1.21821e+01
       H -9.82051e+00 -1.45795e+01 -1.31624e+01
       H -1.08149e+01 -1.44608e+01 -1.21008e+01
       O -1.64717e+01 -3.26315e+00  6.22681e+00
       H -1.67446e+01 -3.56384e+00  5.28234e+00
       H -1.61040e+01 -4.16326e+00  6.54094e+00
       O -1.35996e+01 -1.94144e+01 -2.63210e+01
       H -1.44135e+01 -1.98156e+01 -2.59836e+01
       H -1.31331e+01 -2.03039e+01 -2.62146e+01
       O -1.53924e+01 -1.73003e+01 -2.33767e+01
       H -1.44691e+01 -1.77098e+01 -2.33017e+01
       H -1.53626e+01 -1.72414e+01 -2.43240e+01
       O -4.95083e+00 -9.06039e+00 -1.54100e+01
       H -4.43876e+00 -8.62917e+00 -1.61239e+01
       H -4.31247e+00 -9.73381e+00 -1.50478e+01
       O -1.48049e+01 -1.20894e+01 -1.69520e+01
       H -1.53245e+01 -1.12662e+01 -1.67337e+01
       H -1.54419e+01 -1.26388e+01 -1.73902e+01
       O -1.57489e+01 -2.08018e+01 -1.37157e+01
       H -1.55810e+01 -2.03895e+01 -1.29072e+01
       H -1.62971e+01 -2.15469e+01 -1.34059e+01
       O -1.24626e+01 -1.97521e+01 -1.31387e+01
       H -1.19749e+01 -2.04157e+01 -1.26726e+01
       H -1.33402e+01 -1.99970e+01 -1.27513e+01
       O -7.38270e+00 -1.60916e+01 -1.10369e+01
       H -6.73914e+00 -1.53211e+01 -1.10968e+01
       H -8.24262e+00 -1.56507e+01 -1.12477e+01
       O  2.23608e+01 -1.28369e+01 -1.13042e+01
       H  2.18963e+01 -1.26629e+01 -1.03831e+01
       H  2.27610e+01 -1.37154e+01 -1.11277e+01
       O -6.92202e+00 -2.85690e+01 -2.68330e+00
       H -6.76121e+00 -2.86644e+01 -3.66830e+00
       H -6.59919e+00 -2.76128e+01 -2.63829e+00
       O -1.67383e+01 -2.45004e+01  8.38730e+00
       H -1.74890e+01 -2.46617e+01  8.89511e+00
       H -1.61342e+01 -2.44010e+01  9.16031e+00
       O -1.27967e+01 -1.03291e+01 -1.94238e+00
       H -1.24978e+01 -1.09316e+01 -1.20018e+00
       H -1.34297e+01 -1.09036e+01 -2.41404e+00
       O -1.46941e+01  2.46468e+00 -1.87968e+01
       H -1.55082e+01  2.88116e+00 -1.84350e+01
       H -1.50579e+01  2.17719e+00 -1.96398e+01
       O  2.78882e+01 -1.37379e+01  3.23933e+00
       H  2.69970e+01 -1.33826e+01  2.98048e+00
       H  2.82502e+01 -1.39572e+01  2.34534e+00
       O  1.29316e+01 -1.46018e+01 -2.36598e+01
       H  1.20623e+01 -1.42130e+01 -2.36334e+01
       H  1.27160e+01 -1.53545e+01 -2.42724e+01
       O  5.77467e+00 -2.56021e+01 -2.84031e+00
       H  5.63040e+00 -2.46560e+01 -2.53808e+00
       H  5.63291e+00 -2.57091e+01 -3.83204e+00
       O -2.11798e+01 -1.35924e+01 -1.89090e+01
       H -2.09396e+01 -1.26200e+01 -1.87148e+01
       H -2.06480e+01 -1.37577e+01 -1.97341e+01
       O -2.65479e+00 -8.11451e+00 -1.25080e+01
       H -2.63275e+00 -7.73448e+00 -1.33144e+01
       H -1.76131e+00 -8.07647e+00 -1.21571e+01
       O  2.10516e-01 -6.07684e+00 -9.70597e+00
       H -1.14127e-01 -5.44563e+00 -1.03136e+01
       H -6.86811e-01 -6.44323e+00 -9.47224e+00
       O -7.67380e+00 -4.73836e+00 -3.23780e-01
       H -6.92883e+00 -4.39167e+00  2.65406e-01
       H -8.27400e+00 -3.94916e+00 -3.49710e-01
       O -8.97078e+00  1.18075e+01 -1.14304e+01
       H -9.65501e+00  1.18036e+01 -1.21202e+01
       H -9.46439e+00  1.19848e+01 -1.05832e+01
       O -9.13846e-01 -6.24228e+00 -2.76456e+01
       H -1.18252e+00 -7.15870e+00 -2.75817e+01
       H -1.71880e+00 -5.73924e+00 -2.80260e+01
       O -2.51263e+01 -1.02317e+01  2.51388e+01
       H -2.50038e+01 -1.01954e+01  2.61209e+01
       H -2.55757e+01 -9.36072e+00  2.49211e+01
       O  2.05102e+01 -1.23499e+01  4.18492e+01
       H  1.95336e+01 -1.23331e+01  4.14933e+01
       H  2.03259e+01 -1.23632e+01  4.28554e+01
       O -9.24834e+00 -7.93229e+00 -1.84186e+01
       H -9.49607e+00 -7.98029e+00 -1.93287e+01
       H -9.95809e+00 -8.48716e+00 -1.80494e+01
       O -1.66667e+01 -1.35988e+01 -1.83409e+01
       H -1.71706e+01 -1.43630e+01 -1.86579e+01
       H -1.62039e+01 -1.31931e+01 -1.91413e+01
       O -2.51380e+01 -7.70185e+00  2.86909e+01
       H -2.56445e+01 -8.39502e+00  2.90763e+01
       H -2.51886e+01 -7.87956e+00  2.77374e+01
       O -1.33621e+01 -1.48374e+01 -2.58415e+01
       H -1.41612e+01 -1.53636e+01 -2.58105e+01
       H -1.33225e+01 -1.45886e+01 -2.67496e+01
       O -1.08578e+01 -1.50492e+01 -2.04364e+01
       H -1.09864e+01 -1.51869e+01 -2.13940e+01
       H -9.94576e+00 -1.47555e+01 -2.04188e+01
       O -9.57798e+00  1.76729e+01 -2.86838e+00
       H -8.82914e+00  1.82369e+01 -2.39575e+00
       H -9.21196e+00  1.73157e+01 -3.65694e+00
       O -1.36456e+01 -3.10590e+00 -4.25007e+00
       H -1.44301e+01 -3.05634e+00 -3.67811e+00
       H -1.36946e+01 -2.15275e+00 -4.53070e+00
       O -1.04374e+01 -7.89439e+00  5.96041e-01
       H -1.08663e+01 -7.44876e+00 -1.57826e-01
       H -1.10689e+01 -8.59017e+00  5.93046e-01
       O -3.81628e+00 -2.40142e+01 -2.96260e+01
       H -3.54264e+00 -2.35370e+01 -2.88216e+01
       H -4.74752e+00 -2.37851e+01 -2.97417e+01
       O  1.01438e+01 -8.25504e-01 -1.19249e+01
       H  9.52268e+00 -1.56358e+00 -1.18192e+01
       H  9.93845e+00 -5.91670e-01 -1.28799e+01
       O -8.69270e+00 -2.75687e+00  1.77639e+01
       H -8.66938e+00 -1.95117e+00  1.83297e+01
       H -9.67207e+00 -2.91315e+00  1.78604e+01
       O  2.74648e+01 -2.09401e+01  1.91464e+01
       H  2.78743e+01 -2.02060e+01  1.96495e+01
       H  2.67367e+01 -2.05271e+01  1.86293e+01
       O -2.42031e+01 -1.40940e+01  1.00607e+01
       H -2.36702e+01 -1.48782e+01  1.00756e+01
       H -2.50544e+01 -1.44718e+01  9.77234e+00
       O -1.15754e+01  2.29828e+01 -9.73513e+00
       H -1.12729e+01  2.20911e+01 -9.90430e+00
       H -1.25463e+01  2.28780e+01 -9.66001e+00
       O -1.91899e+01 -9.99933e+00  1.69439e+01
       H -1.97378e+01 -1.07598e+01  1.65874e+01
       H -1.97942e+01 -9.21761e+00  1.69012e+01
       O  2.32579e+01 -2.62255e+01  1.37989e+01
       H  2.26827e+01 -2.55444e+01  1.34805e+01
       H  2.36165e+01 -2.58457e+01  1.47048e+01
       O  1.00848e+01 -3.21784e+01 -1.58386e+01
       H  9.37722e+00 -3.27362e+01 -1.63293e+01
       H  9.67417e+00 -3.12996e+01 -1.58984e+01
       O -5.65483e+00 -1.57155e+01 -1.16964e+00
       H -6.52377e+00 -1.56314e+01 -1.58294e+00
       H -5.57541e+00 -1.48927e+01 -6.87460e-01
       O  1.09973e+01 -1.74209e+01 -3.28548e-01
       H  1.17438e+01 -1.71340e+01 -9.12964e-01
       H  1.09623e+01 -1.66059e+01  2.52104e-01
       O -7.22412e+00  2.02083e+01 -2.28000e+01
       H -7.44601e+00  2.01830e+01  2.37123e+01
       H -7.06320e+00  1.92068e+01  2.48027e+01
       O  1.85787e+01 -1.91280e+01  2.45843e+01
       H  1.91902e+01 -1.88113e+01 -2.35908e+01
       H  1.76674e+01 -1.91445e+01 -2.32901e+01
       O  7.00361e-01  1.42648e+01  2.88154e+00
       H  1.24609e+00  1.50802e+01  2.72633e+00
       H  7.07172e-01  1.39392e+01  2.01826e+00
       O -1.27423e+01  2.09706e+01  1.77210e+01
       H -1.33918e+01  2.15941e+01  1.81841e+01
       H -1.23001e+01  2.06075e+01  1.84762e+01
       O  2.60833e+01 -9.38337e+00  4.18894e+01
       H  2.67725e+01 -9.79327e+00  4.12952e+01
       H  2.61238e+01 -8.52832e+00  4.14760e+01
       O  1.87115e+01 -1.05133e+01 -1.71864e+01
       H  1.78087e+01 -1.02004e+01 -1.72030e+01
       H  1.86489e+01 -1.10396e+01 -1.63821e+01
       O -5.51925e+00 -1.24118e+01 -1.68914e+01
       H -5.96252e+00 -1.31241e+01 -1.72262e+01
       H -4.72661e+00 -1.24833e+01 -1.74363e+01
       O -6.00628e+00 -1.02073e+01  1.76498e+00
       H -6.54844e+00  3.67545e+01  2.39456e+00
       H -6.74757e+00 -1.00766e+01  1.11695e+00
       O  2.84894e+01 -2.77604e+00  2.52031e+01
       H  2.93533e+01 -3.24501e+00  2.54525e+01
       H  2.86711e+01 -2.47567e+00  2.43599e+01
       O -2.27039e+01  6.68115e+00 -3.21132e+00
       H -2.34689e+01  7.20553e+00 -3.04518e+00
       H -2.26181e+01  6.84438e+00 -4.15855e+00
       O  1.94404e+01 -6.87714e+00 -1.28793e+01
       H  1.95335e+01 -7.73625e+00 -1.34160e+01
       H  1.90781e+01 -7.23153e+00 -1.20894e+01
       O -1.05664e+01 -1.04652e+01  3.00857e+01
       H -9.73549e+00 -1.08341e+01  3.04854e+01
       H -1.12995e+01 -1.05946e+01  3.06628e+01
       O -1.70508e+01 -1.28166e+01  2.14884e+00
       H -1.74701e+01 -1.33747e+01  1.47760e+00
       H -1.65283e+01 -1.34637e+01  2.68139e+00
       O  2.14481e+00 -2.36018e+01 -1.21051e+01
       H  2.31709e+00 -2.38660e+01 -1.11921e+01
       H  1.65384e+00 -2.27768e+01 -1.19705e+01
       O -1.94170e+01 -7.08520e+00 -9.63278e+00
       H -1.95038e+01 -6.96928e+00 -1.06375e+01
       H -1.92808e+01 -8.03803e+00 -9.58996e+00
       O -1.63840e+01 -2.20826e+01  2.40964e+01
       H -1.65716e+01 -2.24788e+01  2.32513e+01
       H -1.73147e+01 -2.16988e+01  2.41550e+01
       O  5.05537e+00 -3.07455e+01 -6.47220e-01
       H  5.34061e+00 -3.00416e+01 -6.98041e-02
       H  4.33796e+00 -3.12018e+01 -1.37909e-01
       O -1.23410e+01 -1.60332e+01  1.84346e+01
       H -1.20347e+01 -1.51947e+01  1.87568e+01
       H -1.33107e+01 -1.59616e+01  1.85681e+01
       O  5.02398e+00 -8.16495e+00 -1.35460e+01
       H  5.63004e+00 -8.53635e+00 -1.42593e+01
       H  4.68698e+00 -8.98776e+00 -1.30457e+01
       O -1.23591e+01 -1.21854e+01 -1.57566e+01
       H -1.32998e+01 -1.20321e+01 -1.59408e+01
       H -1.24093e+01 -1.18201e+01 -1.49070e+01
       O  1.91997e+01 -2.56638e+01 -1.26450e+01
       H  1.83844e+01 -2.60635e+01 -1.22702e+01
       H  1.94133e+01 -2.62826e+01 -1.34155e+01
       O -6.95019e+00 -1.87571e+01 -8.02151e+00
       H -7.87717e+00 -1.86517e+01 -8.20611e+00
       H -6.57670e+00 -1.83746e+01 -8.84437e+00
       O -1.88799e+01 -1.35053e+01 -1.50644e+01
       H -1.85392e+01 -1.30141e+01 -1.43105e+01
       H -1.88323e+01 -1.27679e+01 -1.57211e+01
       O  4.53034e-01 -2.40161e+01 -2.74858e+01
       H  1.07620e+00 -2.45174e+01 -2.79953e+01
       H -1.41490e-01 -2.47464e+01 -2.71164e+01
       O  1.71719e+01 -2.44657e+01 -2.19467e+01
       H  1.81595e+01 -2.44323e+01 -2.20217e+01
       H  1.71055e+01 -2.45165e+01 -2.10144e+01
       O  1.52887e+01  2.49285e+01  1.45774e+01
       H  1.55127e+01  2.42323e+01  1.51825e+01
       H  1.58253e+01  2.45514e+01  1.38689e+01
       O -1.01999e+01 -5.89135e-01 -1.06792e+01
       H -9.96130e+00 -5.59508e-01 -1.16256e+01
       H -1.11859e+01 -6.91931e-01 -1.06456e+01
       O -2.14203e+00 -3.88231e+01 -4.71524e+00
       H -1.77659e+00  8.61370e+00 -3.79833e+00
       H -1.40996e+00 -3.82390e+01 -5.01254e+00
       O -6.43722e+00 -1.65746e+01 -2.55202e+01
       H -6.82409e+00 -1.58025e+01 -2.60195e+01
       H -6.81097e+00 -1.63397e+01 -2.46427e+01
       O -1.42154e+01 -3.75609e+01  7.15766e+00
       H -1.48102e+01 -3.78168e+01  7.85120e+00
       H -1.34469e+01 -3.72805e+01  7.63272e+00
       O  7.96475e-01  4.21704e+00  8.06068e-01
       H  5.37172e-02  3.70471e+00  3.84457e-01
       H  1.26572e+00  3.52225e+00  1.26612e+00
       O -2.07382e+01 -6.43333e+00 -4.30094e+00
       H -2.09348e+01 -6.85899e+00 -5.22418e+00
       H -2.16705e+01 -6.00233e+00 -4.05909e+00
       O  2.95843e+01 -1.41189e+01  1.21857e+01
       H  2.94009e+01 -1.32467e+01  1.25906e+01
       H  2.88275e+01 -1.45612e+01  1.25003e+01
       O -5.15089e+00 -1.32429e+01  3.84877e+00
       H -5.53015e+00 -1.38708e+01  3.19803e+00
       H -4.49932e+00 -1.37156e+01  4.39395e+00
       O  1.34788e+01 -1.81709e+01 -4.02189e+00
       H  1.32344e+01 -1.90965e+01 -3.85456e+00
       H  1.43904e+01  2.91322e+01 -4.42532e+00
       O -1.17786e+01  2.27197e+01  1.56750e+00
       H -1.17567e+01  2.17413e+01  1.77261e+00
       H -1.24194e+01  2.27819e+01  8.31245e-01
       O -5.69259e+00 -7.00444e+00 -2.66110e+01
       H -5.43233e+00 -7.78017e+00 -2.71150e+01
       H -5.29987e+00 -7.13650e+00 -2.57253e+01
       O  2.61425e+01 -2.01103e+01  2.39836e+01
       H  2.66483e+01 -1.93575e+01  2.43110e+01
       H  2.55592e+01 -1.97018e+01  2.33163e+01
       O  7.34649e+00  4.39782e+00 -1.99136e+00
       H  7.77973e+00  4.89043e+00 -1.29658e+00
       H  6.74238e+00  5.14845e+00 -2.24076e+00
       O  1.44475e+01 -1.31522e+01 -2.84173e+01
       H  1.46076e+01 -1.33966e+01 -2.74534e+01
       H  1.34322e+01 -1.30432e+01 -2.82285e+01
       O -8.67241e+00  2.64006e+01 -2.79937e+00
       H -9.47033e+00  2.65610e+01 -2.30103e+00
       H -8.02161e+00  2.61193e+01 -2.13204e+00
       O -4.74676e+00 -1.75141e+01 -2.28079e+01
       H -5.22245e+00 -1.80458e+01 -2.34658e+01
       H -3.84234e+00 -1.79492e+01 -2.27492e+01
       O  3.01122e+00 -4.48651e+00 -2.00878e+01
       H  2.84232e+00 -3.66834e+00 -1.95360e+01
       H  3.35199e+00 -4.11010e+00 -2.08898e+01
       O -5.12106e+00 -4.99223e+00  1.40375e+01
       H -5.62319e+00 -5.03977e+00  1.48706e+01
       H -5.67064e+00 -5.36698e+00  1.34153e+01
       O -9.52683e+00 -2.18509e+01 -2.81300e+01
       H -9.65206e+00 -2.16949e+01 -2.71921e+01
       H -9.06579e+00 -2.27202e+01 -2.80863e+01
       O  1.49761e+01 -5.26465e+00 -2.78874e+01
       H  1.53820e+01 -5.56218e+00 -2.70363e+01
       H  1.41369e+01 -4.89817e+00 -2.76074e+01
       O -1.13633e+01 -3.74005e+00  1.94283e+01
       H -1.17439e+01 -4.51293e+00  1.99499e+01
       H -1.18427e+01 -3.81451e+00  1.85952e+01
       O -9.19036e+00 -1.85700e+01 -9.51691e+00
       H -9.07925e+00 -1.81033e+01 -1.03493e+01
       H -1.01266e+01 -1.89139e+01 -9.59557e+00
       O -2.28966e+01 -1.27506e+01  2.63584e+01
       H -2.25774e+01 -1.19481e+01  2.67889e+01
       H -2.24311e+01 -1.33755e+01  2.69141e+01
       O  5.69893e+00 -9.68908e+00 -9.75154e+00
       H  5.34676e+00 -8.83428e+00 -1.01972e+01
       H  5.30376e+00 -9.59278e+00 -8.91126e+00
       O -6.41051e+00  3.97092e+00 -9.60532e+00
       H -6.07974e+00  4.83000e+00 -9.40348e+00
       H -5.72442e+00  3.39802e+00 -9.27650e+00
       O -4.90788e+00  2.83969e+00 -3.27530e+01
       H -5.35785e+00  2.01121e+00 -3.25531e+01
       H -4.57785e+00  3.07951e+00 -3.18735e+01
       O -1.72051e+00 -1.76191e+01 -1.46448e+01
       H -1.30559e+00 -1.76777e+01 -1.37341e+01
       H -2.55523e+00 -1.71194e+01 -1.45475e+01
       O -4.70674e+00 -8.61507e+00 -2.46458e+01
       H -5.15782e+00 -8.61900e+00 -2.37712e+01
       H -3.86184e+00 -8.90693e+00 -2.43530e+01
       O  7.91969e-01 -1.16082e+01 -2.22379e+01
       H -1.59821e-02 -1.13362e+01 -2.17311e+01
       H  1.15535e+00 -1.07725e+01 -2.26258e+01
       O -7.21904e+00  2.35247e+01 -1.01947e+01
       H -7.38840e+00  2.44257e+01 -1.00289e+01
       H -8.10125e+00  2.33728e+01 -1.06351e+01
       O -3.98072e+00 -2.05453e+01 -5.57361e+00
       H -3.59790e+00 -1.97177e+01 -5.84525e+00
       H -3.59937e+00 -2.06105e+01 -4.67845e+00
       O -2.20903e+00  1.14163e+01 -7.40857e+00
       H -2.00679e+00  1.07652e+01 -8.17347e+00
       H -3.09093e+00  1.10017e+01 -7.25641e+00
       O -5.13916e+00 -2.03743e+01 -2.14759e+01
       H -5.49975e+00 -2.11611e+01 -2.20314e+01
       H -4.41455e+00 -2.00096e+01 -2.19472e+01
       O -2.37303e+01 -1.65617e+01 -1.74617e+01
       H -2.38478e+01 -1.75029e+01 -1.73139e+01
       H -2.28510e+01 -1.64558e+01 -1.70612e+01
       O -1.54976e+01 -1.93298e+01 -1.61757e+01
       H -1.55358e+01 -1.94859e+01 -1.52028e+01
       H -1.45438e+01 -1.92925e+01 -1.63056e+01
       O  1.45498e+01  2.25241e+01 -1.05628e+01
       H  1.38405e+01  2.22704e+01 -1.11967e+01
       H  1.46616e+01  2.34448e+01 -1.08308e+01
       O -8.49051e+00  2.33944e+01 -2.37438e+01
       H -8.93781e+00  2.30298e+01 -2.29679e+01
       H -9.19101e+00  2.32410e+01 -2.43823e+01
       O  2.45450e+01 -2.98557e+01  1.74176e+01
       H  2.48456e+01 -2.92702e+01  1.81159e+01
       H  2.37018e+01 -2.94750e+01  1.72971e+01
       O -2.22085e-01 -8.73033e+00 -2.25527e+01
       H  4.94229e-01 -8.16453e+00 -2.29030e+01
       H -6.48676e-01 -8.08423e+00 -2.19894e+01
       O  1.64651e+01  3.02145e+01 -6.95664e+00
       H  1.59927e+01  3.07495e+01 -7.61417e+00
       H  1.59960e+01  2.93541e+01 -6.78466e+00
       O -1.95426e+01 -1.05581e+01 -7.21364e+00
       H -1.88106e+01 -9.85843e+00 -7.16829e+00
       H -1.89157e+01 -1.13270e+01 -7.38327e+00
       O -2.79189e+01 -1.68409e+00 -1.02117e+00
       H -2.83979e+01 -1.29288e+00 -3.42145e-01
       H -2.74890e+01 -9.14000e-01 -1.46127e+00
       O -9.55862e+00 -9.71320e+00 -1.43737e+01
       H -8.77028e+00 -1.03204e+01 -1.42664e+01
       H -9.31740e+00 -9.23326e+00 -1.51902e+01
       O -8.84563e+00  1.02409e+01  1.66007e+01
       H -8.06784e+00  9.66638e+00  1.64280e+01
       H -8.80820e+00  1.06773e+01  1.57328e+01
       O  5.20464e+00  2.14347e+01 -5.51822e+00
       H  6.00974e+00 -2.62631e+01 -5.96640e+00
       H  4.69654e+00  2.05847e+01 -5.73108e+00
       O -1.90023e+01 -1.25929e+01 -9.61320e+00
       H -1.85521e+01 -1.31510e+01 -1.03289e+01
       H -1.95914e+01 -1.32210e+01 -9.09085e+00
       O -1.96163e+01  1.60809e+01 -1.10556e+01
       H -1.93095e+01  1.65748e+01 -1.18260e+01
       H -2.03539e+01  1.55466e+01 -1.13807e+01
       O -1.60008e+01 -1.11243e+01 -8.63486e+00
       H -1.61799e+01 -1.14828e+01 -9.51413e+00
       H -1.50981e+01 -1.09460e+01 -8.94813e+00
       O -7.44759e+00 -8.98134e+00 -1.64712e+01
       H -7.67392e+00 -8.28571e+00 -1.71498e+01
       H -6.57626e+00 -8.71929e+00 -1.61210e+01
       O -7.09234e+00 -1.54131e+01 -2.31917e+01
       H -7.63652e+00 -1.46569e+01 -2.28254e+01
       H -6.86572e+00 -1.58146e+01 -2.23795e+01
       O -6.03577e+00 -2.63683e+01 -1.85811e+01
       H -5.42486e+00 -2.59885e+01 -1.78858e+01
       H -6.02550e+00 -2.73500e+01 -1.84643e+01
       O  1.56192e+01 -1.07245e+01 -1.43893e+01
       H  1.47274e+01 -1.09928e+01 -1.46481e+01
       H  1.60408e+01 -1.13631e+01 -1.49847e+01
       O -8.45100e+00 -5.99677e+00 -2.54614e+01
       H -7.75924e+00 -6.06625e+00 -2.48464e+01
       H -8.32094e+00 -5.07042e+00 -2.58298e+01
       O -2.87009e+01 -6.53415e+00 -1.72845e+01
       H -2.90659e+01 -7.20114e+00 -1.78735e+01
       H -2.91223e+01 -6.64234e+00 -1.64346e+01
       O -8.83423e+00 -9.56461e+00 -3.65194e+00
       H -9.20613e+00 -8.70636e+00 -3.97730e+00