4
# CELL(abcABC): 1000.00000  1000.00000  1000.00000    90.00000    90.00000    90.00000  Step:           0  Bead:       0 positions{angstrom}  cell{angstrom}
       O -3.14113e+00  1.07133e+00  3.42505e-01
       H -2.59096e+00  4.64287e-01  7.82647e-01
       H -3.27483e+00  1.86703e+00  8.17286e-01
       H -3.65977e+00  7.33570e-01 -3.51013e-01
4
# CELL(abcABC): 1000.00000  1000.00000  1000.00000    90.00000    90.00000    90.00000  Step:           1  Bead:       0 positions{angstrom}  cell{angstrom}
       O -3.13949e+00  1.07157e+00  3.41921e-01
       H -2.59966e+00  4.56719e-01  7.87759e-01
       H -3.27454e+00  1.86739e+00  8.18854e-01
       H -3.67737e+00  7.36947e-01 -3.48429e-01
4
# CELL(abcABC): 1000.00000  1000.00000  1000.00000    90.00000    90.00000    90.00000  Step:           2  Bead:       0 positions{angstrom}  cell{angstrom}
       O -3.13804e+00  1.07170e+00  3.41244e-01
       H -2.60674e+00  4.48776e-01  7.94995e-01
       H -3.27233e+00  1.86958e+00  8.21207e-01
       H -3.69561e+00  7.40676e-01 -3.47265e-01
4
# CELL(abcABC): 1000.00000  1000.00000  1000.00000    90.00000    90.00000    90.00000  Step:           3  Bead:       0 positions{angstrom}  cell{angstrom}
       O -3.13663e+00  1.07176e+00  3.40418e-01
       H -2.61192e+00  4.39446e-01  8.05315e-01
       H -3.27000e+00  1.87439e+00  8.24815e-01
       H -3.71502e+00  7.44175e-01 -3.48090e-01
4
# CELL(abcABC): 1000.00000  1000.00000  1000.00000    90.00000    90.00000    90.00000  Step:           4  Bead:       0 positions{angstrom}  cell{angstrom}
       O -3.13534e+00  1.07178e+00  3.39645e-01
       H -2.61667e+00  4.29399e-01  8.15258e-01
       H -3.26652e+00  1.88070e+00  8.28222e-01
       H -3.73435e+00  7.47653e-01 -3.49155e-01
4
# CELL(abcABC): 1000.00000  1000.00000  1000.00000    90.00000    90.00000    90.00000  Step:           5  Bead:       0 positions{angstrom}  cell{angstrom}
       O -3.13401e+00  1.07159e+00  3.38932e-01
       H -2.62219e+00  4.20565e-01  8.25012e-01
       H -3.26305e+00  1.88825e+00  8.32456e-01
       H -3.75327e+00  7.51994e-01 -3.51837e-01
4
# CELL(abcABC): 1000.00000  1000.00000  1000.00000    90.00000    90.00000    90.00000  Step:           6  Bead:       0 positions{angstrom}  cell{angstrom}
       O -3.13266e+00  1.07139e+00  3.38325e-01
       H -2.62818e+00  4.13745e-01  8.33362e-01
       H -3.25941e+00  1.89336e+00  8.34992e-01
       H -3.77245e+00  7.56771e-01 -3.53090e-01
4
# CELL(abcABC): 1000.00000  1000.00000  1000.00000    90.00000    90.00000    90.00000  Step:           7  Bead:       0 positions{angstrom}  cell{angstrom}
       O -3.13144e+00  1.07104e+00  3.37619e-01
       H -2.63353e+00  4.09039e-01  8.42160e-01
       H -3.25505e+00  1.89659e+00  8.37305e-01
       H -3.79082e+00  7.63916e-01 -3.52992e-01
4
# CELL(abcABC): 1000.00000  1000.00000  1000.00000    90.00000    90.00000    90.00000  Step:           8  Bead:       0 positions{angstrom}  cell{angstrom}
       O -3.13040e+00  1.07063e+00  3.37077e-01
       H -2.63891e+00  4.06715e-01  8.49110e-01
       H -3.24874e+00  1.89688e+00  8.37736e-01
       H -3.80817e+00  7.72379e-01 -3.51770e-01
4
# CELL(abcABC): 1000.00000  1000.00000  1000.00000    90.00000    90.00000    90.00000  Step:           9  Bead:       0 positions{angstrom}  cell{angstrom}
       O -3.12953e+00  1.07025e+00  3.36514e-01
       H -2.64524e+00  4.05950e-01  8.55789e-01
       H -3.24040e+00  1.89516e+00  8.37510e-01
       H -3.82405e+00  7.80880e-01 -3.49283e-01
4
# CELL(abcABC): 1000.00000  1000.00000  1000.00000    90.00000    90.00000    90.00000  Step:          10  Bead:       0 positions{angstrom}  cell{angstrom}
       O -3.12879e+00  1.06974e+00  3.36171e-01
       H -2.65231e+00  4.07459e-01  8.60167e-01
       H -3.23093e+00  1.89208e+00  8.35383e-01
       H -3.83817e+00  7.90607e-01 -3.46081e-01
4
# CELL(abcABC): 1000.00000  1000.00000  1000.00000    90.00000    90.00000    90.00000  Step:          11  Bead:       0 positions{angstrom}  cell{angstrom}
       O -3.12820e+00  1.06917e+00  3.36043e-01
       H -2.65967e+00  4.11648e-01  8.61761e-01
       H -3.22186e+00  1.88707e+00  8.31881e-01
       H -3.84919e+00  8.00525e-01 -3.42147e-01
4
# CELL(abcABC): 1000.00000  1000.00000  1000.00000    90.00000    90.00000    90.00000  Step:          12  Bead:       0 positions{angstrom}  cell{angstrom}
       O -3.12794e+00  1.06859e+00  3.36021e-01
       H -2.66578e+00  4.17022e-01  8.61860e-01
       H -3.21214e+00  1.87985e+00  8.26767e-01
       H -3.85696e+00  8.11571e-01 -3.36792e-01
4
# CELL(abcABC): 1000.00000  1000.00000  1000.00000    90.00000    90.00000    90.00000  Step:          13  Bead:       0 positions{angstrom}  cell{angstrom}
       O -3.12797e+00  1.06795e+00  3.35954e-01
       H -2.67133e+00  4.23642e-01  8.61466e-01
       H -3.20056e+00  1.87253e+00  8.21605e-01
       H -3.86249e+00  8.22405e-01 -3.30165e-01
4
# CELL(abcABC): 1000.00000  1000.00000  1000.00000    90.00000    90.00000    90.00000  Step:          14  Bead:       0 positions{angstrom}  cell{angstrom}
       O -3.12832e+00  1.06720e+00  3.35756e-01
       H -2.67451e+00  4.29826e-01  8.61304e-01
       H -3.18809e+00  1.86701e+00  8.16949e-01
       H -3.86626e+00  8.33546e-01 -3.22204e-01
4
# CELL(abcABC): 1000.00000  1000.00000  1000.00000    90.00000    90.00000    90.00000  Step:          15  Bead:       0 positions{angstrom}  cell{angstrom}
       O -3.12887e+00  1.06625e+00  3.35197e-01
       H -2.67828e+00  4.34650e-01  8.63564e-01
       H -3.17600e+00  1.86424e+00  8.13487e-01
       H -3.86594e+00  8.46613e-01 -3.12125e-01
4
# CELL(abcABC): 1000.00000  1000.00000  1000.00000    90.00000    90.00000    90.00000  Step:          16  Bead:       0 positions{angstrom}  cell{angstrom}
       O -3.12970e+00  1.06513e+00  3.34474e-01
       H -2.67947e+00  4.37735e-01  8.66029e-01
       H -3.16400e+00  1.86537e+00  8.11286e-01
       H -3.86352e+00  8.60173e-01 -3.00922e-01
4
# CELL(abcABC): 1000.00000  1000.00000  1000.00000    90.00000    90.00000    90.00000  Step:          17  Bead:       0 positions{angstrom}  cell{angstrom}
       O -3.13065e+00  1.06394e+00  3.33611e-01
       H -2.67846e+00  4.39658e-01  8.69301e-01
       H -3.15302e+00  1.87001e+00  8.09159e-01
       H -3.86040e+00  8.72562e-01 -2.88368e-01
4
# CELL(abcABC): 1000.00000  1000.00000  1000.00000    90.00000    90.00000    90.00000  Step:          18  Bead:       0 positions{angstrom}  cell{angstrom}
       O -3.13172e+00  1.06263e+00  3.32674e-01
       H -2.67717e+00  4.40802e-01  8.73163e-01
       H -3.14102e+00  1.87699e+00  8.07549e-01
       H -3.85673e+00  8.85196e-01 -2.75745e-01
4
# CELL(abcABC): 1000.00000  1000.00000  1000.00000    90.00000    90.00000    90.00000  Step:          19  Bead:       0 positions{angstrom}  cell{angstrom}
       O -3.13297e+00  1.06141e+00  3.31736e-01
       H -2.67443e+00  4.40331e-01  8.77618e-01
       H -3.12989e+00  1.88487e+00  8.05254e-01
       H -3.85074e+00  8.97190e-01 -2.63007e-01
4
# CELL(abcABC): 1000.00000  1000.00000  1000.00000    90.00000    90.00000    90.00000  Step:          20  Bead:       0 positions{angstrom}  cell{angstrom}
       O -3.13424e+00  1.06033e+00  3.30980e-01
       H -2.67096e+00  4.39164e-01  8.80325e-01
       H -3.11986e+00  1.89338e+00  8.02574e-01
       H -3.84418e+00  9.06996e-01 -2.51045e-01
4
# CELL(abcABC): 1000.00000  1000.00000  1000.00000    90.00000    90.00000    90.00000  Step:          21  Bead:       0 positions{angstrom}  cell{angstrom}
       O -3.13552e+00  1.05940e+00  3.30533e-01
       H -2.66763e+00  4.36689e-01  8.81039e-01
       H -3.10838e+00  1.90204e+00  7.99666e-01
       H -3.83852e+00  9.15515e-01 -2.41742e-01
4
# CELL(abcABC): 1000.00000  1000.00000  1000.00000    90.00000    90.00000    90.00000  Step:          22  Bead:       0 positions{angstrom}  cell{angstrom}
       O -3.13677e+00  1.05860e+00  3.30514e-01
       H -2.66551e+00  4.32856e-01  8.81493e-01
       H -3.09488e+00  1.90964e+00  7.93486e-01
       H -3.83436e+00  9.24393e-01 -2.35723e-01
4
# CELL(abcABC): 1000.00000  1000.00000  1000.00000    90.00000    90.00000    90.00000  Step:          23  Bead:       0 positions{angstrom}  cell{angstrom}
       O -3.13789e+00  1.05803e+00  3.31088e-01
       H -2.66365e+00  4.29430e-01  8.79869e-01
       H -3.08051e+00  1.91583e+00  7.85743e-01
       H -3.83277e+00  9.30808e-01 -2.35462e-01
4
# CELL(abcABC): 1000.00000  1000.00000  1000.00000    90.00000    90.00000    90.00000  Step:          24  Bead:       0 positions{angstrom}  cell{angstrom}
       O -3.13887e+00  1.05759e+00  3.32099e-01
       H -2.66183e+00  4.25122e-01  8.76516e-01
       H -3.06572e+00  1.92082e+00  7.76190e-01
       H -3.83395e+00  9.37088e-01 -2.38607e-01
4
# CELL(abcABC): 1000.00000  1000.00000  1000.00000    90.00000    90.00000    90.00000  Step:          25  Bead:       0 positions{angstrom}  cell{angstrom}
       O -3.13962e+00  1.05747e+00  3.33438e-01
       H -2.66081e+00  4.20144e-01  8.72287e-01
       H -3.05123e+00  1.92270e+00  7.64819e-01
       H -3.83756e+00  9.42094e-01 -2.44259e-01
4
# CELL(abcABC): 1000.00000  1000.00000  1000.00000    90.00000    90.00000    90.00000  Step:          26  Bead:       0 positions{angstrom}  cell{angstrom}
       O -3.14018e+00  1.05763e+00  3.35123e-01
       H -2.66061e+00  4.15013e-01  8.65716e-01
       H -3.03635e+00  1.92202e+00  7.51535e-01
       H -3.84362e+00  9.45278e-01 -2.51161e-01
4
# CELL(abcABC): 1000.00000  1000.00000  1000.00000    90.00000    90.00000    90.00000  Step:          27  Bead:       0 positions{angstrom}  cell{angstrom}
       O -3.14072e+00  1.05794e+00  3.37133e-01
       H -2.66135e+00  4.11406e-01  8.57015e-01
       H -3.02129e+00  1.91875e+00  7.36666e-01
       H -3.84941e+00  9.47277e-01 -2.59481e-01
4
# CELL(abcABC): 1000.00000  1000.00000  1000.00000    90.00000    90.00000    90.00000  Step:          28  Bead:       0 positions{angstrom}  cell{angstrom}
       O -3.14113e+00  1.05835e+00  3.39280e-01
       H -2.66367e+00  4.06679e-01  8.47051e-01
       H -3.00534e+00  1.91481e+00  7.21411e-01
       H -3.85650e+00  9.49466e-01 -2.68358e-01
4
# CELL(abcABC): 1000.00000  1000.00000  1000.00000    90.00000    90.00000    90.00000  Step:          29  Bead:       0 positions{angstrom}  cell{angstrom}
       O -3.14157e+00  1.05875e+00  3.41542e-01
       H -2.66551e+00  4.02446e-01  8.34953e-01
       H -2.98984e+00  1.91106e+00  7.06155e-01
       H -3.86318e+00  9.51117e-01 -2.76900e-01
4
# CELL(abcABC): 1000.00000  1000.00000  1000.00000    90.00000    90.00000    90.00000  Step:          30  Bead:       0 positions{angstrom}  cell{angstrom}
       O -3.14209e+00  1.05900e+00  3.43763e-01
       H -2.66677e+00  3.99052e-01  8.23378e-01
       H -2.97390e+00  1.90858e+00  6.91913e-01
       H -3.86965e+00  9.52911e-01 -2.86342e-01
4
# CELL(abcABC): 1000.00000  1000.00000  1000.00000    90.00000    90.00000    90.00000  Step:          31  Bead:       0 positions{angstrom}  cell{angstrom}
       O -3.14289e+00  1.05907e+00  3.45951e-01
       H -2.66585e+00  3.95277e-01  8.12225e-01
       H -2.95647e+00  1.90933e+00  6.78069e-01
       H -3.87531e+00  9.54901e-01 -2.96078e-01
4
# CELL(abcABC): 1000.00000  1000.00000  1000.00000    90.00000    90.00000    90.00000  Step:          32  Bead:       0 positions{angstrom}  cell{angstrom}
       O -3.14386e+00  1.05914e+00  3.47811e-01
       H -2.66499e+00  3.88830e-01  8.02242e-01
       H -2.93755e+00  1.91372e+00  6.66627e-01
       H -3.87970e+00  9.55833e-01 -3.04170e-01
4
# CELL(abcABC): 1000.00000  1000.00000  1000.00000    90.00000    90.00000    90.00000  Step:          33  Bead:       0 positions{angstrom}  cell{angstrom}
       O -3.14503e+00  1.05929e+00  3.49394e-01
       H -2.66377e+00  3.80881e-01  7.94146e-01
       H -2.91738e+00  1.91897e+00  6.56748e-01
       H -3.88256e+00  9.56231e-01 -3.11320e-01
4
# CELL(abcABC): 1000.00000  1000.00000  1000.00000    90.00000    90.00000    90.00000  Step:          34  Bead:       0 positions{angstrom}  cell{angstrom}
       O -3.14626e+00  1.05945e+00  3.50916e-01
       H -2.66139e+00  3.72174e-01  7.86412e-01
       H -2.89833e+00  1.92472e+00  6.48044e-01
       H -3.88441e+00  9.56541e-01 -3.19046e-01
4
# CELL(abcABC): 1000.00000  1000.00000  1000.00000    90.00000    90.00000    90.00000  Step:          35  Bead:       0 positions{angstrom}  cell{angstrom}
       O -3.14770e+00  1.05960e+00  3.52307e-01
       H -2.65687e+00  3.63219e-01  7.78198e-01
       H -2.88010e+00  1.93147e+00  6.40590e-01
       H -3.88432e+00  9.56341e-01 -3.25452e-01
4
# CELL(abcABC): 1000.00000  1000.00000  1000.00000    90.00000    90.00000    90.00000  Step:          36  Bead:       0 positions{angstrom}  cell{angstrom}
       O -3.14930e+00  1.05972e+00  3.53619e-01
       H -2.65204e+00  3.54667e-01  7.69378e-01
       H -2.86169e+00  1.93850e+00  6.32557e-01
       H -3.88216e+00  9.56012e-01 -3.29424e-01
4
# CELL(abcABC): 1000.00000  1000.00000  1000.00000    90.00000    90.00000    90.00000  Step:          37  Bead:       0 positions{angstrom}  cell{angstrom}
       O -3.15104e+00  1.05997e+00  3.54756e-01
       H -2.64684e+00  3.47862e-01  7.61930e-01
       H -2.84311e+00  1.94282e+00  6.23970e-01
       H -3.87825e+00  9.54455e-01 -3.31450e-01
4
# CELL(abcABC): 1000.00000  1000.00000  1000.00000    90.00000    90.00000    90.00000  Step:          38  Bead:       0 positions{angstrom}  cell{angstrom}
       O -3.15267e+00  1.06033e+00  3.56024e-01
       H -2.64328e+00  3.42274e-01  7.52646e-01
       H -2.82507e+00  1.94314e+00  6.14803e-01
       H -3.87408e+00  9.54162e-01 -3.33115e-01
4
# CELL(abcABC): 1000.00000  1000.00000  1000.00000    90.00000    90.00000    90.00000  Step:          39  Bead:       0 positions{angstrom}  cell{angstrom}
       O -3.15446e+00  1.06090e+00  3.57162e-01
       H -2.63983e+00  3.37791e-01  7.43116e-01
       H -2.80739e+00  1.93902e+00  6.06160e-01
       H -3.86677e+00  9.53616e-01 -3.33010e-01
4
# CELL(abcABC): 1000.00000  1000.00000  1000.00000    90.00000    90.00000    90.00000  Step:          40  Bead:       0 positions{angstrom}  cell{angstrom}
       O -3.15627e+00  1.06152e+00  3.58095e-01
       H -2.63737e+00  3.35343e-01  7.33721e-01
       H -2.79026e+00  1.93183e+00  5.98814e-01
       H -3.85763e+00  9.53503e-01 -3.31077e-01
4
# CELL(abcABC): 1000.00000  1000.00000  1000.00000    90.00000    90.00000    90.00000  Step:          41  Bead:       0 positions{angstrom}  cell{angstrom}
       O -3.15802e+00  1.06216e+00  3.58955e-01
       H -2.63636e+00  3.35532e-01  7.23085e-01
       H -2.77338e+00  1.92212e+00  5.91552e-01
       H -3.84773e+00  9.52791e-01 -3.26834e-01
4
# CELL(abcABC): 1000.00000  1000.00000  1000.00000    90.00000    90.00000    90.00000  Step:          42  Bead:       0 positions{angstrom}  cell{angstrom}
       O -3.15981e+00  1.06298e+00  3.59847e-01
       H -2.63496e+00  3.35470e-01  7.11442e-01
       H -2.75706e+00  1.91012e+00  5.84548e-01
       H -3.83709e+00  9.51889e-01 -3.22349e-01
4
# CELL(abcABC): 1000.00000  1000.00000  1000.00000    90.00000    90.00000    90.00000  Step:          43  Bead:       0 positions{angstrom}  cell{angstrom}
       O -3.16148e+00  1.06374e+00  3.60740e-01
       H -2.63482e+00  3.37525e-01  6.98880e-01
       H -2.74132e+00  1.89790e+00  5.77822e-01
       H -3.82634e+00  9.49897e-01 -3.17233e-01
4
# CELL(abcABC): 1000.00000  1000.00000  1000.00000    90.00000    90.00000    90.00000  Step:          44  Bead:       0 positions{angstrom}  cell{angstrom}
       O -3.16303e+00  1.06454e+00  3.61625e-01
       H -2.63522e+00  3.39647e-01  6.85360e-01
       H -2.72609e+00  1.88452e+00  5.70795e-01
       H -3.81661e+00  9.48454e-01 -3.10737e-01
4
# CELL(abcABC): 1000.00000  1000.00000  1000.00000    90.00000    90.00000    90.00000  Step:          45  Bead:       0 positions{angstrom}  cell{angstrom}
       O -3.16437e+00  1.06535e+00  3.62569e-01
       H -2.63664e+00  3.42007e-01  6.71094e-01
       H -2.71057e+00  1.87067e+00  5.63262e-01
       H -3.80941e+00  9.47110e-01 -3.03915e-01
4
# CELL(abcABC): 1000.00000  1000.00000  1000.00000    90.00000    90.00000    90.00000  Step:          46  Bead:       0 positions{angstrom}  cell{angstrom}
       O -3.16566e+00  1.06615e+00  3.63545e-01
       H -2.63819e+00  3.44334e-01  6.56607e-01
       H -2.69529e+00  1.85707e+00  5.55663e-01
       H -3.80276e+00  9.45660e-01 -2.97331e-01
4
# CELL(abcABC): 1000.00000  1000.00000  1000.00000    90.00000    90.00000    90.00000  Step:          47  Bead:       0 positions{angstrom}  cell{angstrom}
       O -3.16683e+00  1.06680e+00  3.64650e-01
       H -2.63932e+00  3.44961e-01  6.42871e-01
       H -2.67972e+00  1.84564e+00  5.47672e-01
       H -3.79856e+00  9.46135e-01 -2.93140e-01
4
# CELL(abcABC): 1000.00000  1000.00000  1000.00000    90.00000    90.00000    90.00000  Step:          48  Bead:       0 positions{angstrom}  cell{angstrom}
       O -3.16791e+00  1.06750e+00  3.65751e-01
       H -2.63927e+00  3.42502e-01  6.30140e-01
       H -2.66391e+00  1.83731e+00  5.39414e-01
       H -3.79737e+00  9.45905e-01 -2.89632e-01
4
# CELL(abcABC): 1000.00000  1000.00000  1000.00000    90.00000    90.00000    90.00000  Step:          49  Bead:       0 positions{angstrom}  cell{angstrom}
       O -3.16893e+00  1.06814e+00  3.66753e-01
       H -2.63842e+00  3.37321e-01  6.18750e-01
       H -2.64670e+00  1.83135e+00  5.31672e-01
       H -3.79923e+00  9.46795e-01 -2.86391e-01
4
# CELL(abcABC): 1000.00000  1000.00000  1000.00000    90.00000    90.00000    90.00000  Step:          50  Bead:       0 positions{angstrom}  cell{angstrom}
       O -3.16963e+00  1.06881e+00  3.67879e-01
       H -2.63746e+00  3.30200e-01  6.07762e-01
       H -2.63137e+00  1.82700e+00  5.24265e-01
       H -3.80432e+00  9.47683e-01 -2.85872e-01
4
# CELL(abcABC): 1000.00000  1000.00000  1000.00000    90.00000    90.00000    90.00000  Step:          51  Bead:       0 positions{angstrom}  cell{angstrom}
       O -3.17016e+00  1.06941e+00  3.69044e-01
       H -2.63682e+00  3.21049e-01  5.96913e-01
       H -2.61690e+00  1.82493e+00  5.16843e-01
       H -3.81105e+00  9.49394e-01 -2.86107e-01
4
# CELL(abcABC): 1000.00000  1000.00000  1000.00000    90.00000    90.00000    90.00000  Step:          52  Bead:       0 positions{angstrom}  cell{angstrom}
       O -3.17043e+00  1.07003e+00  3.70345e-01
       H -2.63706e+00  3.10713e-01  5.86520e-01
       H -2.60374e+00  1.82370e+00  5.08290e-01
       H -3.81966e+00  9.51032e-01 -2.87799e-01
4
# CELL(abcABC): 1000.00000  1000.00000  1000.00000    90.00000    90.00000    90.00000  Step:          53  Bead:       0 positions{angstrom}  cell{angstrom}
       O -3.17045e+00  1.07055e+00  3.71620e-01
       H -2.63768e+00  3.00680e-01  5.75562e-01
       H -2.59236e+00  1.82478e+00  5.00310e-01
       H -3.83012e+00  9.51850e-01 -2.89098e-01
4
# CELL(abcABC): 1000.00000  1000.00000  1000.00000    90.00000    90.00000    90.00000  Step:          54  Bead:       0 positions{angstrom}  cell{angstrom}
       O -3.17015e+00  1.07106e+00  3.72610e-01
       H -2.63972e+00  2.90241e-01  5.66015e-01
       H -2.58333e+00  1.82681e+00  4.93039e-01
       H -3.84190e+00  9.52158e-01 -2.87994e-01
4
# CELL(abcABC): 1000.00000  1000.00000  1000.00000    90.00000    90.00000    90.00000  Step:          55  Bead:       0 positions{angstrom}  cell{angstrom}
       O -3.16958e+00  1.07149e+00  3.73509e-01
       H -2.64396e+00  2.81132e-01  5.57593e-01
       H -2.57648e+00  1.82862e+00  4.86409e-01
       H -3.85358e+00  9.52625e-01 -2.87213e-01
4
# CELL(abcABC): 1000.00000  1000.00000  1000.00000    90.00000    90.00000    90.00000  Step:          56  Bead:       0 positions{angstrom}  cell{angstrom}
       O -3.16877e+00  1.07178e+00  3.74314e-01
       H -2.64772e+00  2.73964e-01  5.50200e-01
       H -2.57231e+00  1.82937e+00  4.78716e-01
       H -3.86678e+00  9.54387e-01 -2.84914e-01
4
# CELL(abcABC): 1000.00000  1000.00000  1000.00000    90.00000    90.00000    90.00000  Step:          57  Bead:       0 positions{angstrom}  cell{angstrom}
       O -3.16769e+00  1.07192e+00  3.74946e-01
       H -2.65151e+00  2.69402e-01  5.43842e-01
       H -2.57170e+00  1.82863e+00  4.72140e-01
       H -3.88082e+00  9.57510e-01 -2.82013e-01
4
# CELL(abcABC): 1000.00000  1000.00000  1000.00000    90.00000    90.00000    90.00000  Step:          58  Bead:       0 positions{angstrom}  cell{angstrom}
       O -3.16646e+00  1.07197e+00  3.75426e-01
       H -2.65559e+00  2.66218e-01  5.37946e-01
       H -2.57294e+00  1.82691e+00  4.66481e-01
       H -3.89492e+00  9.61589e-01 -2.78075e-01
4
# CELL(abcABC): 1000.00000  1000.00000  1000.00000    90.00000    90.00000    90.00000  Step:          59  Bead:       0 positions{angstrom}  cell{angstrom}
       O -3.16516e+00  1.07183e+00  3.75610e-01
       H -2.65984e+00  2.65233e-01  5.32875e-01
       H -2.57561e+00  1.82496e+00  4.62875e-01
       H -3.90872e+00  9.66706e-01 -2.72318e-01
4
# CELL(abcABC): 1000.00000  1000.00000  1000.00000    90.00000    90.00000    90.00000  Step:          60  Bead:       0 positions{angstrom}  cell{angstrom}
       O -3.16383e+00  1.07160e+00  3.75639e-01
       H -2.66583e+00  2.65705e-01  5.28722e-01
       H -2.57870e+00  1.82199e+00  4.58311e-01
       H -3.92063e+00  9.72918e-01 -2.64066e-01
4
# CELL(abcABC): 1000.00000  1000.00000  1000.00000    90.00000    90.00000    90.00000  Step:          61  Bead:       0 positions{angstrom}  cell{angstrom}
       O -3.16264e+00  1.07127e+00  3.75480e-01
       H -2.67118e+00  2.66987e-01  5.25272e-01
       H -2.58114e+00  1.81877e+00  4.53183e-01
       H -3.93180e+00  9.80046e-01 -2.52958e-01
4
# CELL(abcABC): 1000.00000  1000.00000  1000.00000    90.00000    90.00000    90.00000  Step:          62  Bead:       0 positions{angstrom}  cell{angstrom}
       O -3.16148e+00  1.07091e+00  3.75227e-01
       H -2.67709e+00  2.68222e-01  5.22429e-01
       H -2.58486e+00  1.81544e+00  4.48334e-01
       H -3.94065e+00  9.87853e-01 -2.41255e-01
4
# CELL(abcABC): 1000.00000  1000.00000  1000.00000    90.00000    90.00000    90.00000  Step:          63  Bead:       0 positions{angstrom}  cell{angstrom}
       O -3.16042e+00  1.07034e+00  3.74590e-01
       H -2.68204e+00  2.70655e-01  5.21203e-01
       H -2.58846e+00  1.81220e+00  4.44149e-01
       H -3.94882e+00  9.97748e-01 -2.25728e-01
4
# CELL(abcABC): 1000.00000  1000.00000  1000.00000    90.00000    90.00000    90.00000  Step:          64  Bead:       0 positions{angstrom}  cell{angstrom}
       O -3.15962e+00  1.06967e+00  3.73681e-01
       H -2.68470e+00  2.72990e-01  5.22189e-01
       H -2.59084e+00  1.81004e+00  4.40868e-01
       H -3.95655e+00  1.00823e+00 -2.09003e-01
4
# CELL(abcABC): 1000.00000  1000.00000  1000.00000    90.00000    90.00000    90.00000  Step:          65  Bead:       0 positions{angstrom}  cell{angstrom}
       O -3.15906e+00  1.06886e+00  3.72570e-01
       H -2.68682e+00  2.75135e-01  5.23340e-01
       H -2.59135e+00  1.81075e+00  4.38318e-01
       H -3.96276e+00  1.01823e+00 -1.89967e-01
4
# CELL(abcABC): 1000.00000  1000.00000  1000.00000    90.00000    90.00000    90.00000  Step:          66  Bead:       0 positions{angstrom}  cell{angstrom}
       O -3.15876e+00  1.06791e+00  3.71157e-01
       H -2.68755e+00  2.78692e-01  5.26426e-01
       H -2.59055e+00  1.81151e+00  4.36945e-01
       H -3.96763e+00  1.02905e+00 -1.69253e-01
4
# CELL(abcABC): 1000.00000  1000.00000  1000.00000    90.00000    90.00000    90.00000  Step:          67  Bead:       0 positions{angstrom}  cell{angstrom}
       O -3.15860e+00  1.06703e+00  3.69550e-01
       H -2.68638e+00  2.79850e-01  5.29951e-01
       H -2.58823e+00  1.81370e+00  4.36909e-01
       H -3.97363e+00  1.03953e+00 -1.47240e-01
4
# CELL(abcABC): 1000.00000  1000.00000  1000.00000    90.00000    90.00000    90.00000  Step:          68  Bead:       0 positions{angstrom}  cell{angstrom}
       O -3.15863e+00  1.06617e+00  3.67929e-01
       H -2.68304e+00  2.79128e-01  5.34326e-01
       H -2.58492e+00  1.81689e+00  4.36015e-01
       H -3.97983e+00  1.05084e+00 -1.24986e-01
4
# CELL(abcABC): 1000.00000  1000.00000  1000.00000    90.00000    90.00000    90.00000  Step:          69  Bead:       0 positions{angstrom}  cell{angstrom}
       O -3.15867e+00  1.06549e+00  3.66005e-01
       H -2.67883e+00  2.75485e-01  5.41295e-01
       H -2.58212e+00  1.82053e+00  4.36634e-01
       H -3.98615e+00  1.06160e+00 -1.02024e-01
4
# CELL(abcABC): 1000.00000  1000.00000  1000.00000    90.00000    90.00000    90.00000  Step:          70  Bead:       0 positions{angstrom}  cell{angstrom}
       O -3.15886e+00  1.06475e+00  3.64002e-01
       H -2.67359e+00  2.71673e-01  5.48031e-01
       H -2.57937e+00  1.82476e+00  4.37455e-01
       H -3.99116e+00  1.07293e+00 -7.77993e-02
4
# CELL(abcABC): 1000.00000  1000.00000  1000.00000    90.00000    90.00000    90.00000  Step:          71  Bead:       0 positions{angstrom}  cell{angstrom}
       O -3.15889e+00  1.06415e+00  3.62032e-01
       H -2.66900e+00  2.66675e-01  5.53777e-01
       H -2.57781e+00  1.82774e+00  4.38187e-01
       H -3.99680e+00  1.08443e+00 -5.29967e-02
4
# CELL(abcABC): 1000.00000  1000.00000  1000.00000    90.00000    90.00000    90.00000  Step:          72  Bead:       0 positions{angstrom}  cell{angstrom}
       O -3.15878e+00  1.06350e+00  3.60015e-01
       H -2.66462e+00  2.62566e-01  5.59902e-01
       H -2.57711e+00  1.82977e+00  4.39924e-01
       H -4.00373e+00  1.09687e+00 -2.88436e-02
4
# CELL(abcABC): 1000.00000  1000.00000  1000.00000    90.00000    90.00000    90.00000  Step:          73  Bead:       0 positions{angstrom}  cell{angstrom}
       O -3.15837e+00  1.06290e+00  3.58102e-01
       H -2.66143e+00  2.59509e-01  5.65717e-01
       H -2.57770e+00  1.83081e+00  4.41877e-01
       H -4.01276e+00  1.10839e+00 -6.24604e-03
4
# CELL(abcABC): 1000.00000  1000.00000  1000.00000    90.00000    90.00000    90.00000  Step:          74  Bead:       0 positions{angstrom}  cell{angstrom}
       O -3.15772e+00  1.06225e+00  3.56402e-01
       H -2.65934e+00  2.58140e-01  5.69864e-01
       H -2.57967e+00  1.83043e+00  4.42800e-01
       H -4.02322e+00  1.12052e+00  1.56560e-02
4
# CELL(abcABC): 1000.00000  1000.00000  1000.00000    90.00000    90.00000    90.00000  Step:          75  Bead:       0 positions{angstrom}  cell{angstrom}
       O -3.15663e+00  1.06162e+00  3.54769e-01
       H -2.65933e+00  2.57542e-01  5.72969e-01
       H -2.58354e+00  1.82810e+00  4.44590e-01
       H -4.03664e+00  1.13340e+00  3.66872e-02
4
# CELL(abcABC): 1000.00000  1000.00000  1000.00000    90.00000    90.00000    90.00000  Step:          76  Bead:       0 positions{angstrom}  cell{angstrom}
       O -3.15539e+00  1.06084e+00  3.53071e-01
       H -2.66008e+00  2.58908e-01  5.76626e-01
       H -2.58854e+00  1.82481e+00  4.46600e-01
       H -4.05063e+00  1.14767e+00  5.79759e-02
4
# CELL(abcABC): 1000.00000  1000.00000  1000.00000    90.00000    90.00000    90.00000  Step:          77  Bead:       0 positions{angstrom}  cell{angstrom}
       O -3.15389e+00  1.05999e+00  3.51381e-01
       H -2.66237e+00  2.62665e-01  5.79791e-01
       H -2.59453e+00  1.82132e+00  4.49394e-01
       H -4.06615e+00  1.16084e+00  7.88479e-02
4
# CELL(abcABC): 1000.00000  1000.00000  1000.00000    90.00000    90.00000    90.00000  Step:          78  Bead:       0 positions{angstrom}  cell{angstrom}
       O -3.15225e+00  1.05913e+00  3.49879e-01
       H -2.66699e+00  2.66699e-01  5.81635e-01
       H -2.59966e+00  1.81855e+00  4.52159e-01
       H -4.08243e+00  1.17331e+00  9.80723e-02
4
# CELL(abcABC): 1000.00000  1000.00000  1000.00000    90.00000    90.00000    90.00000  Step:          79  Bead:       0 positions{angstrom}  cell{angstrom}
       O -3.15069e+00  1.05836e+00  3.48350e-01
       H -2.67297e+00  2.71490e-01  5.84540e-01
       H -2.60284e+00  1.81547e+00  4.54986e-01
       H -4.09798e+00  1.18375e+00  1.16615e-01
4
# CELL(abcABC): 1000.00000  1000.00000  1000.00000    90.00000    90.00000    90.00000  Step:          80  Bead:       0 positions{angstrom}  cell{angstrom}
       O -3.14935e+00  1.05766e+00  3.46697e-01
       H -2.67873e+00  2.75968e-01  5.87478e-01
       H -2.60442e+00  1.81307e+00  4.59153e-01
       H -4.11185e+00  1.19286e+00  1.35748e-01
4
# CELL(abcABC): 1000.00000  1000.00000  1000.00000    90.00000    90.00000    90.00000  Step:          81  Bead:       0 positions{angstrom}  cell{angstrom}
       O -3.14829e+00  1.05691e+00  3.45075e-01
       H -2.68210e+00  2.79938e-01  5.90044e-01
       H -2.60504e+00  1.81371e+00  4.63806e-01
       H -4.12473e+00  1.20019e+00  1.54282e-01
4
# CELL(abcABC): 1000.00000  1000.00000  1000.00000    90.00000    90.00000    90.00000  Step:          82  Bead:       0 positions{angstrom}  cell{angstrom}
       O -3.14749e+00  1.05643e+00  3.43318e-01
       H -2.68407e+00  2.81346e-01  5.93796e-01
       H -2.60378e+00  1.81422e+00  4.68628e-01
       H -4.13679e+00  1.20578e+00  1.73588e-01
4
# CELL(abcABC): 1000.00000  1000.00000  1000.00000    90.00000    90.00000    90.00000  Step:          83  Bead:       0 positions{angstrom}  cell{angstrom}
       O -3.14700e+00  1.05607e+00  3.41531e-01
       H -2.68518e+00  2.81019e-01  5.98432e-01
       H -2.60114e+00  1.81595e+00  4.73588e-01
       H -4.14607e+00  1.21016e+00  1.92367e-01
4
# CELL(abcABC): 1000.00000  1000.00000  1000.00000    90.00000    90.00000    90.00000  Step:          84  Bead:       0 positions{angstrom}  cell{angstrom}
       O -3.14676e+00  1.05590e+00  3.39762e-01
       H -2.68446e+00  2.77927e-01  6.02434e-01
       H -2.59846e+00  1.81828e+00  4.78399e-01
       H -4.15328e+00  1.21360e+00  2.11628e-01
4
# CELL(abcABC): 1000.00000  1000.00000  1000.00000    90.00000    90.00000    90.00000  Step:          85  Bead:       0 positions{angstrom}  cell{angstrom}