6
# CELL(abcABC): 1000.00000  1000.00000  1000.00000    90.00000    90.00000    90.00000  Step:         462  Bead:       0 positions{angstrom}  cell{angstrom}
       C -7.33225e-01  2.87678e+00 -6.00920e-01
       H -1.13276e+00  3.47539e+00 -1.37539e+00
       H  2.50288e-01  3.23627e+00 -3.79013e-01
       H -7.34727e-01  1.83151e+00 -8.55658e-01
       O -1.50178e+00  3.10625e+00  5.39749e-01
       H -2.31733e+00  2.71133e+00  8.89353e-01
