4
# CELL(abcABC): 1000.00000  1000.00000  1000.00000    90.00000    90.00000    90.00000  Step:           0  Bead:       0 positions{angstrom}  cell{angstrom}
       O -3.15260e+00  1.10375e+00  3.40871e-01
       H -2.65015e+00  5.87852e-01 -2.88539e-01
       H -2.60429e+00  1.09268e+00  1.15303e+00
       H -4.08901e+00  8.69857e-01  4.10377e-01
4
# CELL(abcABC): 1000.00000  1000.00000  1000.00000    90.00000    90.00000    90.00000  Step:           1  Bead:       0 positions{angstrom}  cell{angstrom}
       O -3.15083e+00  1.10403e+00  3.40392e-01
       H -2.66034e+00  5.80553e-01 -2.85314e-01
       H -2.60538e+00  1.09238e+00  1.15379e+00
       H -4.10586e+00  8.73003e-01  4.13996e-01
4
# CELL(abcABC): 1000.00000  1000.00000  1000.00000    90.00000    90.00000    90.00000  Step:           2  Bead:       0 positions{angstrom}  cell{angstrom}
       O -3.14910e+00  1.10427e+00  3.40067e-01
       H -2.67135e+00  5.72916e-01 -2.83929e-01
       H -2.60730e+00  1.09281e+00  1.15381e+00
       H -4.12033e+00  8.76401e-01  4.17751e-01
4
# CELL(abcABC): 1000.00000  1000.00000  1000.00000    90.00000    90.00000    90.00000  Step:           3  Bead:       0 positions{angstrom}  cell{angstrom}
       O -3.14741e+00  1.10452e+00  3.39844e-01
       H -2.68220e+00  5.63282e-01 -2.83269e-01
       H -2.61174e+00  1.09511e+00  1.15387e+00
       H -4.13187e+00  8.79704e-01  4.20563e-01
4
# CELL(abcABC): 1000.00000  1000.00000  1000.00000    90.00000    90.00000    90.00000  Step:           4  Bead:       0 positions{angstrom}  cell{angstrom}
       O -3.14591e+00  1.10481e+00  3.39874e-01
       H -2.69346e+00  5.51478e-01 -2.86146e-01
       H -2.61754e+00  1.09888e+00  1.15319e+00
       H -4.13865e+00  8.83245e-01  4.23657e-01
4
# CELL(abcABC): 1000.00000  1000.00000  1000.00000    90.00000    90.00000    90.00000  Step:           5  Bead:       0 positions{angstrom}  cell{angstrom}
       O -3.14453e+00  1.10494e+00  3.40073e-01
       H -2.70571e+00  5.38880e-01 -2.91302e-01
       H -2.62558e+00  1.10462e+00  1.15362e+00
       H -4.14022e+00  8.87952e-01  4.25211e-01
4
# CELL(abcABC): 1000.00000  1000.00000  1000.00000    90.00000    90.00000    90.00000  Step:           6  Bead:       0 positions{angstrom}  cell{angstrom}
       O -3.14329e+00  1.10510e+00  3.40377e-01
       H -2.71821e+00  5.26067e-01 -2.98776e-01
       H -2.63539e+00  1.10951e+00  1.15359e+00
       H -4.13758e+00  8.93377e-01  4.27893e-01
4
# CELL(abcABC): 1000.00000  1000.00000  1000.00000    90.00000    90.00000    90.00000  Step:           7  Bead:       0 positions{angstrom}  cell{angstrom}
       O -3.14236e+00  1.10508e+00  3.40472e-01
       H -2.72971e+00  5.13298e-01 -3.05535e-01
       H -2.64594e+00  1.11462e+00  1.15544e+00
       H -4.13033e+00  9.01393e-01  4.31306e-01
4
# CELL(abcABC): 1000.00000  1000.00000  1000.00000    90.00000    90.00000    90.00000  Step:           8  Bead:       0 positions{angstrom}  cell{angstrom}
       O -3.14176e+00  1.10496e+00  3.40524e-01
       H -2.74075e+00  5.01092e-01 -3.12737e-01
       H -2.65553e+00  1.11918e+00  1.15812e+00
       H -4.11925e+00  9.10849e-01  4.34993e-01
4
# CELL(abcABC): 1000.00000  1000.00000  1000.00000    90.00000    90.00000    90.00000  Step:           9  Bead:       0 positions{angstrom}  cell{angstrom}
       O -3.14140e+00  1.10482e+00  3.40283e-01
       H -2.75233e+00  4.89120e-01 -3.17835e-01
       H -2.66368e+00  1.12404e+00  1.16310e+00
       H -4.10527e+00  9.20307e-01  4.38946e-01
4
# CELL(abcABC): 1000.00000  1000.00000  1000.00000    90.00000    90.00000    90.00000  Step:          10  Bead:       0 positions{angstrom}  cell{angstrom}
       O -3.14115e+00  1.10448e+00  3.39961e-01
       H -2.76427e+00  4.78592e-01 -3.22139e-01
       H -2.67105e+00  1.12953e+00  1.16890e+00
       H -4.08980e+00  9.30757e-01  4.42548e-01
4
# CELL(abcABC): 1000.00000  1000.00000  1000.00000    90.00000    90.00000    90.00000  Step:          11  Bead:       0 positions{angstrom}  cell{angstrom}
       O -3.14093e+00  1.10403e+00  3.39566e-01
       H -2.77628e+00  4.70560e-01 -3.25769e-01
       H -2.67897e+00  1.13451e+00  1.17552e+00
       H -4.07351e+00  9.40947e-01  4.45836e-01
4
# CELL(abcABC): 1000.00000  1000.00000  1000.00000    90.00000    90.00000    90.00000  Step:          12  Bead:       0 positions{angstrom}  cell{angstrom}
       O -3.14074e+00  1.10353e+00  3.39032e-01
       H -2.78707e+00  4.64337e-01 -3.27484e-01
       H -2.68619e+00  1.13790e+00  1.18196e+00
       H -4.05846e+00  9.51593e-01  4.49593e-01
4
# CELL(abcABC): 1000.00000  1000.00000  1000.00000    90.00000    90.00000    90.00000  Step:          13  Bead:       0 positions{angstrom}  cell{angstrom}
       O -3.14042e+00  1.10298e+00  3.38278e-01
       H -2.79764e+00  4.60755e-01 -3.26585e-01
       H -2.69131e+00  1.14062e+00  1.18878e+00
       H -4.04789e+00  9.61168e-01  4.53834e-01
4
# CELL(abcABC): 1000.00000  1000.00000  1000.00000    90.00000    90.00000    90.00000  Step:          14  Bead:       0 positions{angstrom}  cell{angstrom}
       O -3.13987e+00  1.10237e+00  3.37322e-01
       H -2.80642e+00  4.58775e-01 -3.22996e-01
       H -2.69517e+00  1.14333e+00  1.19539e+00
       H -4.04388e+00  9.70118e-01  4.58804e-01
4
# CELL(abcABC): 1000.00000  1000.00000  1000.00000    90.00000    90.00000    90.00000  Step:          15  Bead:       0 positions{angstrom}  cell{angstrom}
       O -3.13895e+00  1.10164e+00  3.36041e-01
       H -2.81647e+00  4.57802e-01 -3.15260e-01
       H -2.69903e+00  1.14589e+00  1.20140e+00
       H -4.04459e+00  9.80168e-01  4.65397e-01
4
# CELL(abcABC): 1000.00000  1000.00000  1000.00000    90.00000    90.00000    90.00000  Step:          16  Bead:       0 positions{angstrom}  cell{angstrom}
       O -3.13779e+00  1.10086e+00  3.34727e-01
       H -2.82443e+00  4.57238e-01 -3.06519e-01
       H -2.70259e+00  1.14884e+00  1.20617e+00
       H -4.05152e+00  9.90163e-01  4.72748e-01
4
# CELL(abcABC): 1000.00000  1000.00000  1000.00000    90.00000    90.00000    90.00000  Step:          17  Bead:       0 positions{angstrom}  cell{angstrom}
       O -3.13634e+00  1.10014e+00  3.33465e-01
       H -2.83030e+00  4.57066e-01 -2.96962e-01
       H -2.70678e+00  1.15178e+00  1.20824e+00
       H -4.06446e+00  9.98840e-01  4.81138e-01
4
# CELL(abcABC): 1000.00000  1000.00000  1000.00000    90.00000    90.00000    90.00000  Step:          18  Bead:       0 positions{angstrom}  cell{angstrom}
       O -3.13481e+00  1.09944e+00  3.32348e-01
       H -2.83546e+00  4.56728e-01 -2.87462e-01
       H -2.70942e+00  1.15404e+00  1.20835e+00
       H -4.08096e+00  1.00807e+00  4.89258e-01
4
# CELL(abcABC): 1000.00000  1000.00000  1000.00000    90.00000    90.00000    90.00000  Step:          19  Bead:       0 positions{angstrom}  cell{angstrom}
       O -3.13349e+00  1.09894e+00  3.31446e-01
       H -2.83816e+00  4.54322e-01 -2.78598e-01
       H -2.71230e+00  1.15502e+00  1.20591e+00
       H -4.09635e+00  1.01739e+00  4.97153e-01
4
# CELL(abcABC): 1000.00000  1000.00000  1000.00000    90.00000    90.00000    90.00000  Step:          20  Bead:       0 positions{angstrom}  cell{angstrom}
       O -3.13243e+00  1.09869e+00  3.30889e-01
       H -2.83854e+00  4.49721e-01 -2.72870e-01
       H -2.71538e+00  1.15538e+00  1.20211e+00
       H -4.10971e+00  1.02561e+00  5.04081e-01
4
# CELL(abcABC): 1000.00000  1000.00000  1000.00000    90.00000    90.00000    90.00000  Step:          21  Bead:       0 positions{angstrom}  cell{angstrom}
       O -3.13183e+00  1.09866e+00  3.30703e-01
       H -2.83716e+00  4.41771e-01 -2.70261e-01
       H -2.71577e+00  1.15559e+00  1.19812e+00
       H -4.12027e+00  1.03389e+00  5.08415e-01
4
# CELL(abcABC): 1000.00000  1000.00000  1000.00000    90.00000    90.00000    90.00000  Step:          22  Bead:       0 positions{angstrom}  cell{angstrom}
       O -3.13174e+00  1.09874e+00  3.30886e-01
       H -2.83505e+00  4.30507e-01 -2.68314e-01
       H -2.71265e+00  1.15539e+00  1.19182e+00
       H -4.12689e+00  1.04403e+00  5.09854e-01
4
# CELL(abcABC): 1000.00000  1000.00000  1000.00000    90.00000    90.00000    90.00000  Step:          23  Bead:       0 positions{angstrom}  cell{angstrom}
       O -3.13216e+00  1.09895e+00  3.31470e-01
       H -2.83146e+00  4.18141e-01 -2.67887e-01
       H -2.70695e+00  1.15510e+00  1.18571e+00
       H -4.12951e+00  1.05328e+00  5.06272e-01
4
# CELL(abcABC): 1000.00000  1000.00000  1000.00000    90.00000    90.00000    90.00000  Step:          24  Bead:       0 positions{angstrom}  cell{angstrom}
       O -3.13306e+00  1.09914e+00  3.32189e-01
       H -2.82655e+00  4.04233e-01 -2.67679e-01
       H -2.69907e+00  1.15537e+00  1.18010e+00
       H -4.12803e+00  1.06395e+00  5.00247e-01
4
# CELL(abcABC): 1000.00000  1000.00000  1000.00000    90.00000    90.00000    90.00000  Step:          25  Bead:       0 positions{angstrom}  cell{angstrom}
       O -3.13430e+00  1.09941e+00  3.32859e-01
       H -2.82162e+00  3.89987e-01 -2.65917e-01
       H -2.68980e+00  1.15456e+00  1.17520e+00
       H -4.12250e+00  1.07476e+00  4.92767e-01
4
# CELL(abcABC): 1000.00000  1000.00000  1000.00000    90.00000    90.00000    90.00000  Step:          26  Bead:       0 positions{angstrom}  cell{angstrom}
       O -3.13582e+00  1.09968e+00  3.33465e-01
       H -2.81720e+00  3.76812e-01 -2.63367e-01
       H -2.67869e+00  1.15312e+00  1.17073e+00
       H -4.11396e+00  1.08499e+00  4.85055e-01
4
# CELL(abcABC): 1000.00000  1000.00000  1000.00000    90.00000    90.00000    90.00000  Step:          27  Bead:       0 positions{angstrom}  cell{angstrom}
       O -3.13759e+00  1.09982e+00  3.34004e-01
       H -2.81400e+00  3.67215e-01 -2.59446e-01
       H -2.66638e+00  1.15056e+00  1.16651e+00
       H -4.10126e+00  1.09506e+00  4.76813e-01
4
# CELL(abcABC): 1000.00000  1000.00000  1000.00000    90.00000    90.00000    90.00000  Step:          28  Bead:       0 positions{angstrom}  cell{angstrom}
       O -3.13933e+00  1.09978e+00  3.34353e-01
       H -2.81327e+00  3.59278e-01 -2.53406e-01
       H -2.65275e+00  1.14796e+00  1.16293e+00
       H -4.08812e+00  1.10616e+00  4.68808e-01
4
# CELL(abcABC): 1000.00000  1000.00000  1000.00000    90.00000    90.00000    90.00000  Step:          29  Bead:       0 positions{angstrom}  cell{angstrom}
       O -3.14093e+00  1.09951e+00  3.34583e-01
       H -2.81353e+00  3.55124e-01 -2.46526e-01
       H -2.63988e+00  1.14527e+00  1.15939e+00
       H -4.07524e+00  1.11737e+00  4.61813e-01
4
# CELL(abcABC): 1000.00000  1000.00000  1000.00000    90.00000    90.00000    90.00000  Step:          30  Bead:       0 positions{angstrom}  cell{angstrom}
       O -3.14223e+00  1.09890e+00  3.34650e-01
       H -2.81518e+00  3.55420e-01 -2.36854e-01
       H -2.62764e+00  1.14264e+00  1.15599e+00
       H -4.06526e+00  1.12927e+00  4.54485e-01
4
# CELL(abcABC): 1000.00000  1000.00000  1000.00000    90.00000    90.00000    90.00000  Step:          31  Bead:       0 positions{angstrom}  cell{angstrom}
       O -3.14322e+00  1.09797e+00  3.34681e-01
       H -2.81698e+00  3.58863e-01 -2.25503e-01
       H -2.61572e+00  1.14139e+00  1.15136e+00
       H -4.05972e+00  1.14185e+00  4.47273e-01
4
# CELL(abcABC): 1000.00000  1000.00000  1000.00000    90.00000    90.00000    90.00000  Step:          32  Bead:       0 positions{angstrom}  cell{angstrom}
       O -3.14366e+00  1.09695e+00  3.34484e-01
       H -2.82124e+00  3.62591e-01 -2.12827e-01
       H -2.60467e+00  1.14188e+00  1.14719e+00
       H -4.05952e+00  1.15383e+00  4.41896e-01
4
# CELL(abcABC): 1000.00000  1000.00000  1000.00000    90.00000    90.00000    90.00000  Step:          33  Bead:       0 positions{angstrom}  cell{angstrom}
       O -3.14355e+00  1.09594e+00  3.34196e-01
       H -2.82728e+00  3.66645e-01 -1.99144e-01
       H -2.59505e+00  1.14199e+00  1.14258e+00
       H -4.06469e+00  1.16572e+00  4.37395e-01
4
# CELL(abcABC): 1000.00000  1000.00000  1000.00000    90.00000    90.00000    90.00000  Step:          34  Bead:       0 positions{angstrom}  cell{angstrom}
       O -3.14286e+00  1.09493e+00  3.34100e-01
       H -2.83368e+00  3.70110e-01 -1.86965e-01
       H -2.58936e+00  1.14233e+00  1.13735e+00
       H -4.07502e+00  1.17789e+00  4.31959e-01
4
# CELL(abcABC): 1000.00000  1000.00000  1000.00000    90.00000    90.00000    90.00000  Step:          35  Bead:       0 positions{angstrom}  cell{angstrom}
       O -3.14187e+00  1.09396e+00  3.34170e-01
       H -2.83871e+00  3.71670e-01 -1.77970e-01
       H -2.58704e+00  1.14442e+00  1.13207e+00
       H -4.08799e+00  1.18974e+00  4.27124e-01
4
# CELL(abcABC): 1000.00000  1000.00000  1000.00000    90.00000    90.00000    90.00000  Step:          36  Bead:       0 positions{angstrom}  cell{angstrom}
       O -3.14075e+00  1.09303e+00  3.34465e-01
       H -2.84345e+00  3.70342e-01 -1.72752e-01
       H -2.58660e+00  1.14871e+00  1.12563e+00
       H -4.10155e+00  1.20145e+00  4.23684e-01
4
# CELL(abcABC): 1000.00000  1000.00000  1000.00000    90.00000    90.00000    90.00000  Step:          37  Bead:       0 positions{angstrom}  cell{angstrom}
       O -3.13967e+00  1.09235e+00  3.34851e-01
       H -2.84731e+00  3.66376e-01 -1.69414e-01
       H -2.58727e+00  1.15337e+00  1.11891e+00
       H -4.11407e+00  1.21168e+00  4.20937e-01
4
# CELL(abcABC): 1000.00000  1000.00000  1000.00000    90.00000    90.00000    90.00000  Step:          38  Bead:       0 positions{angstrom}  cell{angstrom}
       O -3.13857e+00  1.09185e+00  3.35567e-01
       H -2.85189e+00  3.58644e-01 -1.70921e-01
       H -2.58894e+00  1.15790e+00  1.11278e+00
       H -4.12535e+00  1.22269e+00  4.17199e-01
4
# CELL(abcABC): 1000.00000  1000.00000  1000.00000    90.00000    90.00000    90.00000  Step:          39  Bead:       0 positions{angstrom}  cell{angstrom}
       O -3.13786e+00  1.09166e+00  3.36269e-01
       H -2.85565e+00  3.47394e-01 -1.75057e-01
       H -2.59063e+00  1.16222e+00  1.10914e+00
       H -4.13106e+00  1.23275e+00  4.13841e-01
4
# CELL(abcABC): 1000.00000  1000.00000  1000.00000    90.00000    90.00000    90.00000  Step:          40  Bead:       0 positions{angstrom}  cell{angstrom}
       O -3.13749e+00  1.09152e+00  3.36780e-01
       H -2.85964e+00  3.34530e-01 -1.80450e-01
       H -2.59201e+00  1.16757e+00  1.10922e+00
       H -4.13162e+00  1.24239e+00  4.11040e-01
4
# CELL(abcABC): 1000.00000  1000.00000  1000.00000    90.00000    90.00000    90.00000  Step:          41  Bead:       0 positions{angstrom}  cell{angstrom}
       O -3.13740e+00  1.09139e+00  3.37155e-01
       H -2.86458e+00  3.21956e-01 -1.87449e-01
       H -2.59252e+00  1.17408e+00  1.11180e+00
       H -4.12760e+00  1.25051e+00  4.09508e-01
4
# CELL(abcABC): 1000.00000  1000.00000  1000.00000    90.00000    90.00000    90.00000  Step:          42  Bead:       0 positions{angstrom}  cell{angstrom}
       O -3.13767e+00  1.09136e+00  3.37448e-01
       H -2.86902e+00  3.08337e-01 -1.94959e-01
       H -2.59256e+00  1.18126e+00  1.11666e+00
       H -4.11890e+00  1.25749e+00  4.07504e-01
4
# CELL(abcABC): 1000.00000  1000.00000  1000.00000    90.00000    90.00000    90.00000  Step:          43  Bead:       0 positions{angstrom}  cell{angstrom}
       O -3.13808e+00  1.09115e+00  3.37591e-01
       H -2.87494e+00  2.97600e-01 -2.02007e-01
       H -2.59250e+00  1.19021e+00  1.12312e+00
       H -4.10641e+00  1.26250e+00  4.05823e-01
4
# CELL(abcABC): 1000.00000  1000.00000  1000.00000    90.00000    90.00000    90.00000  Step:          44  Bead:       0 positions{angstrom}  cell{angstrom}
       O -3.13853e+00  1.09083e+00  3.37569e-01
       H -2.88198e+00  2.89154e-01 -2.08111e-01
       H -2.59275e+00  1.19898e+00  1.12971e+00
       H -4.09200e+00  1.26734e+00  4.05678e-01
4
# CELL(abcABC): 1000.00000  1000.00000  1000.00000    90.00000    90.00000    90.00000  Step:          45  Bead:       0 positions{angstrom}  cell{angstrom}
       O -3.13882e+00  1.09034e+00  3.37455e-01
       H -2.89092e+00  2.84419e-01 -2.12757e-01
       H -2.59303e+00  1.20709e+00  1.13533e+00
       H -4.07817e+00  1.27179e+00  4.06513e-01
4
# CELL(abcABC): 1000.00000  1000.00000  1000.00000    90.00000    90.00000    90.00000  Step:          46  Bead:       0 positions{angstrom}  cell{angstrom}
       O -3.13899e+00  1.08966e+00  3.37244e-01
       H -2.90114e+00  2.84139e-01 -2.15419e-01
       H -2.59440e+00  1.21407e+00  1.13964e+00
       H -4.06397e+00  1.27591e+00  4.08221e-01
4
# CELL(abcABC): 1000.00000  1000.00000  1000.00000    90.00000    90.00000    90.00000  Step:          47  Bead:       0 positions{angstrom}  cell{angstrom}
       O -3.13886e+00  1.08865e+00  3.37053e-01
       H -2.91228e+00  2.87294e-01 -2.15383e-01
       H -2.59672e+00  1.22077e+00  1.14174e+00
       H -4.05255e+00  1.28205e+00  4.09103e-01
4
# CELL(abcABC): 1000.00000  1000.00000  1000.00000    90.00000    90.00000    90.00000  Step:          48  Bead:       0 positions{angstrom}  cell{angstrom}
       O -3.13839e+00  1.08753e+00  3.36780e-01
       H -2.92353e+00  2.92598e-01 -2.12835e-01
       H -2.60011e+00  1.22738e+00  1.14149e+00
       H -4.04544e+00  1.28783e+00  4.11153e-01
4
# CELL(abcABC): 1000.00000  1000.00000  1000.00000    90.00000    90.00000    90.00000  Step:          49  Bead:       0 positions{angstrom}  cell{angstrom}
       O -3.13762e+00  1.08627e+00  3.36347e-01
       H -2.93491e+00  2.99772e-01 -2.07938e-01
       H -2.60317e+00  1.23290e+00  1.13973e+00
       H -4.04318e+00  1.29521e+00  4.14892e-01
4
# CELL(abcABC): 1000.00000  1000.00000  1000.00000    90.00000    90.00000    90.00000  Step:          50  Bead:       0 positions{angstrom}  cell{angstrom}
       O -3.13639e+00  1.08500e+00  3.36007e-01
       H -2.94639e+00  3.08242e-01 -2.02239e-01
       H -2.60856e+00  1.23678e+00  1.13652e+00
       H -4.04574e+00  1.30299e+00  4.17793e-01
4
# CELL(abcABC): 1000.00000  1000.00000  1000.00000    90.00000    90.00000    90.00000  Step:          51  Bead:       0 positions{angstrom}  cell{angstrom}
       O -3.13500e+00  1.08375e+00  3.35712e-01
       H -2.95762e+00  3.16074e-01 -1.96741e-01
       H -2.61447e+00  1.24000e+00  1.13204e+00
       H -4.05078e+00  1.31174e+00  4.21457e-01
4
# CELL(abcABC): 1000.00000  1000.00000  1000.00000    90.00000    90.00000    90.00000  Step:          52  Bead:       0 positions{angstrom}  cell{angstrom}
       O -3.13353e+00  1.08274e+00  3.35590e-01
       H -2.96825e+00  3.22026e-01 -1.91874e-01
       H -2.62033e+00  1.24173e+00  1.12588e+00
       H -4.05755e+00  1.32017e+00  4.24693e-01
4
# CELL(abcABC): 1000.00000  1000.00000  1000.00000    90.00000    90.00000    90.00000  Step:          53  Bead:       0 positions{angstrom}  cell{angstrom}
       O -3.13218e+00  1.08193e+00  3.35502e-01
       H -2.97701e+00  3.25578e-01 -1.89325e-01
       H -2.62554e+00  1.24404e+00  1.12066e+00
       H -4.06502e+00  1.32709e+00  4.28756e-01
4
# CELL(abcABC): 1000.00000  1000.00000  1000.00000    90.00000    90.00000    90.00000  Step:          54  Bead:       0 positions{angstrom}  cell{angstrom}
       O -3.13103e+00  1.08152e+00  3.35207e-01
       H -2.98436e+00  3.24480e-01 -1.87556e-01
       H -2.62961e+00  1.24634e+00  1.11731e+00
       H -4.07181e+00  1.33238e+00  4.35024e-01
4
# CELL(abcABC): 1000.00000  1000.00000  1000.00000    90.00000    90.00000    90.00000  Step:          55  Bead:       0 positions{angstrom}  cell{angstrom}
       O -3.13026e+00  1.08148e+00  3.34902e-01
       H -2.99074e+00  3.19506e-01 -1.86903e-01
       H -2.63157e+00  1.24806e+00  1.11632e+00
       H -4.07579e+00  1.33631e+00  4.40201e-01
4
# CELL(abcABC): 1000.00000  1000.00000  1000.00000    90.00000    90.00000    90.00000  Step:          56  Bead:       0 positions{angstrom}  cell{angstrom}
       O -3.12993e+00  1.08175e+00  3.34590e-01
       H -2.99344e+00  3.11084e-01 -1.87202e-01
       H -2.63152e+00  1.24884e+00  1.11614e+00
       H -4.07835e+00  1.33974e+00  4.45635e-01
4
# CELL(abcABC): 1000.00000  1000.00000  1000.00000    90.00000    90.00000    90.00000  Step:          57  Bead:       0 positions{angstrom}  cell{angstrom}
       O -3.12999e+00  1.08227e+00  3.34188e-01
       H -2.99317e+00  3.00384e-01 -1.87878e-01
       H -2.63033e+00  1.24842e+00  1.11887e+00
       H -4.07880e+00  1.34253e+00  4.49954e-01
4
# CELL(abcABC): 1000.00000  1000.00000  1000.00000    90.00000    90.00000    90.00000  Step:          58  Bead:       0 positions{angstrom}  cell{angstrom}
       O -3.13052e+00  1.08308e+00  3.33729e-01
       H -2.99060e+00  2.87215e-01 -1.88808e-01
       H -2.62675e+00  1.24715e+00  1.12385e+00
       H -4.07660e+00  1.34415e+00  4.53193e-01
4
# CELL(abcABC): 1000.00000  1000.00000  1000.00000    90.00000    90.00000    90.00000  Step:          59  Bead:       0 positions{angstrom}  cell{angstrom}
       O -3.13143e+00  1.08400e+00  3.33090e-01
       H -2.98618e+00  2.73824e-01 -1.88836e-01
       H -2.62128e+00  1.24540e+00  1.13137e+00
       H -4.07197e+00  1.34467e+00  4.55843e-01
4
# CELL(abcABC): 1000.00000  1000.00000  1000.00000    90.00000    90.00000    90.00000  Step:          60  Bead:       0 positions{angstrom}  cell{angstrom}
       O -3.13263e+00  1.08506e+00  3.32453e-01
       H -2.98216e+00  2.61023e-01 -1.87202e-01
       H -2.61409e+00  1.24189e+00  1.13728e+00
       H -4.06416e+00  1.34423e+00  4.58405e-01
4
# CELL(abcABC): 1000.00000  1000.00000  1000.00000    90.00000    90.00000    90.00000  Step:          61  Bead:       0 positions{angstrom}  cell{angstrom}
       O -3.13406e+00  1.08617e+00  3.31819e-01
       H -2.97697e+00  2.49759e-01 -1.83664e-01
       H -2.60533e+00  1.23687e+00  1.14097e+00
       H -4.05545e+00  1.34287e+00  4.61246e-01
4
# CELL(abcABC): 1000.00000  1000.00000  1000.00000    90.00000    90.00000    90.00000  Step:          62  Bead:       0 positions{angstrom}  cell{angstrom}
       O -3.13542e+00  1.08731e+00  3.31308e-01
       H -2.97262e+00  2.40604e-01 -1.78050e-01
       H -2.59808e+00  1.23001e+00  1.14248e+00
       H -4.04551e+00  1.34068e+00  4.62240e-01
4
# CELL(abcABC): 1000.00000  1000.00000  1000.00000    90.00000    90.00000    90.00000  Step:          63  Bead:       0 positions{angstrom}  cell{angstrom}
       O -3.13658e+00  1.08824e+00  3.30639e-01
       H -2.96832e+00  2.35993e-01 -1.69275e-01
       H -2.59197e+00  1.22109e+00  1.14168e+00
       H -4.03740e+00  1.33947e+00  4.64878e-01
4
# CELL(abcABC): 1000.00000  1000.00000  1000.00000    90.00000    90.00000    90.00000  Step:          64  Bead:       0 positions{angstrom}  cell{angstrom}
       O -3.13753e+00  1.08902e+00  3.29932e-01
       H -2.96344e+00  2.35439e-01 -1.56967e-01
       H -2.58667e+00  1.21072e+00  1.13861e+00
       H -4.03250e+00  1.33812e+00  4.66853e-01
4
# CELL(abcABC): 1000.00000  1000.00000  1000.00000    90.00000    90.00000    90.00000  Step:          65  Bead:       0 positions{angstrom}  cell{angstrom}
       O -3.13816e+00  1.08957e+00  3.29263e-01
       H -2.96020e+00  2.39059e-01 -1.43631e-01
       H -2.58207e+00  1.20062e+00  1.13316e+00
       H -4.03041e+00  1.33586e+00  4.69602e-01
4
# CELL(abcABC): 1000.00000  1000.00000  1000.00000    90.00000    90.00000    90.00000  Step:          66  Bead:       0 positions{angstrom}  cell{angstrom}
       O -3.13844e+00  1.08987e+00  3.28528e-01
       H -2.95806e+00  2.48196e-01 -1.28148e-01
       H -2.57867e+00  1.18837e+00  1.12609e+00
       H -4.03149e+00  1.33416e+00  4.72851e-01
4
# CELL(abcABC): 1000.00000  1000.00000  1000.00000    90.00000    90.00000    90.00000  Step:          67  Bead:       0 positions{angstrom}  cell{angstrom}
       O -3.13831e+00  1.09016e+00  3.27843e-01
       H -2.95663e+00  2.58163e-01 -1.13037e-01
       H -2.57595e+00  1.17593e+00  1.11814e+00
       H -4.03776e+00  1.33197e+00  4.76561e-01
4
# CELL(abcABC): 1000.00000  1000.00000  1000.00000    90.00000    90.00000    90.00000  Step:          68  Bead:       0 positions{angstrom}  cell{angstrom}
       O -3.13792e+00  1.09042e+00  3.27390e-01
       H -2.95545e+00  2.67925e-01 -9.89194e-02
       H -2.57382e+00  1.16367e+00  1.10787e+00
       H -4.04713e+00  1.33035e+00  4.79913e-01
4
# CELL(abcABC): 1000.00000  1000.00000  1000.00000    90.00000    90.00000    90.00000  Step:          69  Bead:       0 positions{angstrom}  cell{angstrom}
       O -3.13731e+00  1.09091e+00  3.26867e-01
       H -2.95533e+00  2.74384e-01 -8.50353e-02
       H -2.57286e+00  1.15206e+00  1.09866e+00
       H -4.05790e+00  1.32771e+00  4.83536e-01
4
# CELL(abcABC): 1000.00000  1000.00000  1000.00000    90.00000    90.00000    90.00000  Step:          70  Bead:       0 positions{angstrom}  cell{angstrom}
       O -3.13681e+00  1.09148e+00  3.26469e-01
       H -2.95537e+00  2.77978e-01 -7.49338e-02
       H -2.57169e+00  1.14219e+00  1.09029e+00
       H -4.06699e+00  1.32498e+00  4.88128e-01
4
# CELL(abcABC): 1000.00000  1000.00000  1000.00000    90.00000    90.00000    90.00000  Step:          71  Bead:       0 positions{angstrom}  cell{angstrom}
       O -3.13632e+00  1.09240e+00  3.26257e-01
       H -2.95656e+00  2.75849e-01 -6.97590e-02
       H -2.57051e+00  1.13314e+00  1.08341e+00
       H -4.07484e+00  1.32161e+00  4.93186e-01
4
# CELL(abcABC): 1000.00000  1000.00000  1000.00000    90.00000    90.00000    90.00000  Step:          72  Bead:       0 positions{angstrom}  cell{angstrom}
       O -3.13599e+00  1.09348e+00  3.26080e-01
       H -2.95794e+00  2.69257e-01 -6.79403e-02
       H -2.56829e+00  1.12585e+00  1.07995e+00
       H -4.08085e+00  1.31832e+00  4.97645e-01
4
# CELL(abcABC): 1000.00000  1000.00000  1000.00000    90.00000    90.00000    90.00000  Step:          73  Bead:       0 positions{angstrom}  cell{angstrom}
       O -3.13579e+00  1.09480e+00  3.26019e-01
       H -2.96023e+00  2.58508e-01 -6.95552e-02
       H -2.56514e+00  1.12069e+00  1.07947e+00
       H -4.08496e+00  1.31322e+00  5.00704e-01
4
# CELL(abcABC): 1000.00000  1000.00000  1000.00000    90.00000    90.00000    90.00000  Step:          74  Bead:       0 positions{angstrom}  cell{angstrom}
       O -3.13577e+00  1.09618e+00  3.26126e-01
       H -2.96323e+00  2.45267e-01 -7.50261e-02
       H -2.56125e+00  1.11737e+00  1.08068e+00
       H -4.08610e+00  1.30794e+00  5.03277e-01
4
# CELL(abcABC): 1000.00000  1000.00000  1000.00000    90.00000    90.00000    90.00000  Step:          75  Bead:       0 positions{angstrom}  cell{angstrom}
       O -3.13571e+00  1.09758e+00  3.26203e-01
       H -2.96804e+00  2.30294e-01 -8.26605e-02
       H -2.55756e+00  1.11523e+00  1.08515e+00
       H -4.08591e+00  1.30278e+00  5.05211e-01
4
# CELL(abcABC): 1000.00000  1000.00000  1000.00000    90.00000    90.00000    90.00000  Step:          76  Bead:       0 positions{angstrom}  cell{angstrom}
       O -3.13579e+00  1.09873e+00  3.26098e-01
       H -2.97354e+00  2.16718e-01 -8.97942e-02
       H -2.55415e+00  1.11481e+00  1.09159e+00
       H -4.08252e+00  1.29860e+00  5.07578e-01
4
# CELL(abcABC): 1000.00000  1000.00000  1000.00000    90.00000    90.00000    90.00000  Step:          77  Bead:       0 positions{angstrom}  cell{angstrom}
       O -3.13578e+00  1.09961e+00  3.25887e-01
       H -2.98076e+00  2.06728e-01 -9.66295e-02
       H -2.55195e+00  1.11620e+00  1.09968e+00
       H -4.07776e+00  1.29320e+00  5.09662e-01
4
# CELL(abcABC): 1000.00000  1000.00000  1000.00000    90.00000    90.00000    90.00000  Step:          78  Bead:       0 positions{angstrom}  cell{angstrom}
       O -3.13562e+00  1.10020e+00  3.25779e-01
       H -2.99077e+00  1.99790e-01 -1.03464e-01
       H -2.55021e+00  1.11954e+00  1.10770e+00
       H -4.07204e+00  1.28734e+00  5.10197e-01
4
# CELL(abcABC): 1000.00000  1000.00000  1000.00000    90.00000    90.00000    90.00000  Step:          79  Bead:       0 positions{angstrom}  cell{angstrom}
       O -3.13537e+00  1.10056e+00  3.25590e-01
       H -3.00291e+00  1.97794e-01 -1.07601e-01
       H -2.54884e+00  1.12312e+00  1.11487e+00
       H -4.06524e+00  1.28009e+00  5.10169e-01
4
# CELL(abcABC): 1000.00000  1000.00000  1000.00000    90.00000    90.00000    90.00000  Step:          80  Bead:       0 positions{angstrom}  cell{angstrom}
       O -3.13500e+00  1.10059e+00  3.25261e-01
       H -3.01590e+00  2.00683e-01 -1.10076e-01
       H -2.54897e+00  1.12728e+00  1.12176e+00
       H -4.05793e+00  1.27260e+00  5.10969e-01
4
# CELL(abcABC): 1000.00000  1000.00000  1000.00000    90.00000    90.00000    90.00000  Step:          81  Bead:       0 positions{angstrom}  cell{angstrom}
       O -3.13444e+00  1.10015e+00  3.24987e-01
       H -3.02767e+00  2.08780e-01 -1.11515e-01
       H -2.55175e+00  1.13394e+00  1.12693e+00
       H -4.05222e+00  1.26486e+00  5.11583e-01
4
# CELL(abcABC): 1000.00000  1000.00000  1000.00000    90.00000    90.00000    90.00000  Step:          82  Bead:       0 positions{angstrom}  cell{angstrom}
       O -3.13361e+00  1.09955e+00  3.24634e-01
       H -3.03921e+00  2.19893e-01 -1.10762e-01
       H -2.55623e+00  1.13985e+00  1.12982e+00
       H -4.04950e+00  1.25731e+00  5.13538e-01
4
# CELL(abcABC): 1000.00000  1000.00000  1000.00000    90.00000    90.00000    90.00000  Step:          83  Bead:       0 positions{angstrom}  cell{angstrom}
       O -3.13254e+00  1.09867e+00  3.24329e-01
       H -3.05071e+00  2.33863e-01 -1.08603e-01
       H -2.56262e+00  1.14642e+00  1.13041e+00
       H -4.04849e+00  1.25072e+00  5.15641e-01
4
# CELL(abcABC): 1000.00000  1000.00000  1000.00000    90.00000    90.00000    90.00000  Step:          84  Bead:       0 positions{angstrom}  cell{angstrom}
       O -3.13124e+00  1.09768e+00  3.24134e-01
       H -3.06068e+00  2.47905e-01 -1.07182e-01
       H -2.57158e+00  1.15331e+00  1.12875e+00
       H -4.05021e+00  1.24558e+00  5.18969e-01
4
# CELL(abcABC): 1000.00000  1000.00000  1000.00000    90.00000    90.00000    90.00000  Step:          85  Bead:       0 positions{angstrom}  cell{angstrom}