4
# CELL(abcABC): 1000.00000  1000.00000  1000.00000    90.00000    90.00000    90.00000  Step:         684  Bead:       0 positions{angstrom}  cell{angstrom}
       O -3.14542e+00  1.06498e+00  3.53973e-01
       H -3.62476e+00  5.94251e-01 -2.98457e-01
       H -2.60312e+00  4.67094e-01  7.64446e-01
       H -3.22950e+00  2.10426e+00  6.00933e-01
