4
# CELL(abcABC): 1000.00000  1000.00000  1000.00000    90.00000    90.00000    90.00000  Step:           0  Bead:       0 positions{angstrom}  cell{angstrom}
       O -3.15250e+00  1.05674e+00  3.74095e-01
       H -3.36092e+00  1.51673e+00 -4.35444e-01
       H -3.20828e+00  1.34335e-01  1.23075e-01
       H -2.77590e+00  1.64529e+00  1.05989e+00
4
# CELL(abcABC): 1000.00000  1000.00000  1000.00000    90.00000    90.00000    90.00000  Step:           1  Bead:       0 positions{angstrom}  cell{angstrom}
       O -3.15076e+00  1.05709e+00  3.73506e-01
       H -3.37118e+00  1.50955e+00 -4.31504e-01
       H -3.20831e+00  1.33010e-01  1.24337e-01
       H -2.79317e+00  1.64828e+00  1.06403e+00
4
# CELL(abcABC): 1000.00000  1000.00000  1000.00000    90.00000    90.00000    90.00000  Step:           2  Bead:       0 positions{angstrom}  cell{angstrom}
       O -3.14901e+00  1.05750e+00  3.72857e-01
       H -3.38284e+00  1.50298e+00 -4.28224e-01
       H -3.20706e+00  1.30535e-01  1.25920e-01
       H -2.81065e+00  1.65074e+00  1.06948e+00
4
# CELL(abcABC): 1000.00000  1000.00000  1000.00000    90.00000    90.00000    90.00000  Step:           3  Bead:       0 positions{angstrom}  cell{angstrom}
       O -3.14711e+00  1.05800e+00  3.72105e-01
       H -3.39527e+00  1.49591e+00 -4.24735e-01
       H -3.20632e+00  1.28389e-01  1.28606e-01
       H -2.82911e+00  1.65200e+00  1.07524e+00
4
# CELL(abcABC): 1000.00000  1000.00000  1000.00000    90.00000    90.00000    90.00000  Step:           4  Bead:       0 positions{angstrom}  cell{angstrom}
       O -3.14513e+00  1.05858e+00  3.71439e-01
       H -3.40930e+00  1.48855e+00 -4.24332e-01
       H -3.20509e+00  1.26470e-01  1.31444e-01
       H -2.84767e+00  1.65216e+00  1.08257e+00
4
# CELL(abcABC): 1000.00000  1000.00000  1000.00000    90.00000    90.00000    90.00000  Step:           5  Bead:       0 positions{angstrom}  cell{angstrom}
       O -3.14297e+00  1.05905e+00  3.70824e-01
       H -3.42545e+00  1.48211e+00 -4.26228e-01
       H -3.20458e+00  1.25564e-01  1.36014e-01
       H -2.86631e+00  1.65201e+00  1.08966e+00
4
# CELL(abcABC): 1000.00000  1000.00000  1000.00000    90.00000    90.00000    90.00000  Step:           6  Bead:       0 positions{angstrom}  cell{angstrom}
       O -3.14064e+00  1.05962e+00  3.70237e-01
       H -3.44265e+00  1.47661e+00 -4.30719e-01
       H -3.20468e+00  1.22987e-01  1.40372e-01
       H -2.88599e+00  1.65105e+00  1.09910e+00
4
# CELL(abcABC): 1000.00000  1000.00000  1000.00000    90.00000    90.00000    90.00000  Step:           7  Bead:       0 positions{angstrom}  cell{angstrom}
       O -3.13834e+00  1.06012e+00  3.69402e-01
       H -3.45915e+00  1.47137e+00 -4.34819e-01
       H -3.20483e+00  1.20169e-01  1.46392e-01
       H -2.90596e+00  1.65116e+00  1.11044e+00
4
# CELL(abcABC): 1000.00000  1000.00000  1000.00000    90.00000    90.00000    90.00000  Step:           8  Bead:       0 positions{angstrom}  cell{angstrom}
       O -3.13614e+00  1.06067e+00  3.68520e-01
       H -3.47493e+00  1.46604e+00 -4.39790e-01
       H -3.20371e+00  1.16682e-01  1.52682e-01
       H -2.92621e+00  1.65131e+00  1.12313e+00
4
# CELL(abcABC): 1000.00000  1000.00000  1000.00000    90.00000    90.00000    90.00000  Step:           9  Bead:       0 positions{angstrom}  cell{angstrom}
       O -3.13405e+00  1.06134e+00  3.67363e-01
       H -3.49043e+00  1.45938e+00 -4.43145e-01
       H -3.20113e+00  1.13770e-01  1.60501e-01
       H -2.94645e+00  1.65024e+00  1.13702e+00
4
# CELL(abcABC): 1000.00000  1000.00000  1000.00000    90.00000    90.00000    90.00000  Step:          10  Bead:       0 positions{angstrom}  cell{angstrom}
       O -3.13207e+00  1.06198e+00  3.66160e-01
       H -3.50507e+00  1.45195e+00 -4.46333e-01
       H -3.19780e+00  1.12073e-01  1.68486e-01
       H -2.96652e+00  1.64921e+00  1.15133e+00
4
# CELL(abcABC): 1000.00000  1000.00000  1000.00000    90.00000    90.00000    90.00000  Step:          11  Bead:       0 positions{angstrom}  cell{angstrom}
       O -3.13024e+00  1.06267e+00  3.64920e-01
       H -3.51826e+00  1.44434e+00 -4.49543e-01
       H -3.19506e+00  1.10612e-01  1.76863e-01
       H -2.98514e+00  1.64725e+00  1.16584e+00
4
# CELL(abcABC): 1000.00000  1000.00000  1000.00000    90.00000    90.00000    90.00000  Step:          12  Bead:       0 positions{angstrom}  cell{angstrom}
       O -3.12874e+00  1.06348e+00  3.63576e-01
       H -3.52852e+00  1.43560e+00 -4.51503e-01
       H -3.19163e+00  1.08435e-01  1.84931e-01
       H -3.00217e+00  1.64541e+00  1.18107e+00
4
# CELL(abcABC): 1000.00000  1000.00000  1000.00000    90.00000    90.00000    90.00000  Step:          13  Bead:       0 positions{angstrom}  cell{angstrom}
       O -3.12753e+00  1.06434e+00  3.62046e-01
       H -3.53683e+00  1.42656e+00 -4.51575e-01
       H -3.18607e+00  1.06728e-01  1.93602e-01
       H -3.01855e+00  1.64250e+00  1.19675e+00
4
# CELL(abcABC): 1000.00000  1000.00000  1000.00000    90.00000    90.00000    90.00000  Step:          14  Bead:       0 positions{angstrom}  cell{angstrom}
       O -3.12664e+00  1.06520e+00  3.60340e-01
       H -3.54180e+00  1.41653e+00 -4.49721e-01
       H -3.17912e+00  1.06329e-01  2.02720e-01
       H -3.03465e+00  1.63919e+00  1.21286e+00
4
# CELL(abcABC): 1000.00000  1000.00000  1000.00000    90.00000    90.00000    90.00000  Step:          15  Bead:       0 positions{angstrom}  cell{angstrom}
       O -3.12594e+00  1.06596e+00  3.58325e-01
       H -3.54695e+00  1.40562e+00 -4.44660e-01
       H -3.17189e+00  1.07144e-01  2.12362e-01
       H -3.04793e+00  1.63728e+00  1.23015e+00
4
# CELL(abcABC): 1000.00000  1000.00000  1000.00000    90.00000    90.00000    90.00000  Step:          16  Bead:       0 positions{angstrom}  cell{angstrom}
       O -3.12550e+00  1.06662e+00  3.56285e-01
       H -3.54967e+00  1.39436e+00 -4.39683e-01
       H -3.16397e+00  1.09591e-01  2.22225e-01
       H -3.06004e+00  1.63558e+00  1.24769e+00
4
# CELL(abcABC): 1000.00000  1000.00000  1000.00000    90.00000    90.00000    90.00000  Step:          17  Bead:       0 positions{angstrom}  cell{angstrom}
       O -3.12516e+00  1.06724e+00  3.54300e-01
       H -3.55078e+00  1.38405e+00 -4.35209e-01
       H -3.15629e+00  1.12941e-01  2.31075e-01
       H -3.07195e+00  1.63266e+00  1.26587e+00
4
# CELL(abcABC): 1000.00000  1000.00000  1000.00000    90.00000    90.00000    90.00000  Step:          18  Bead:       0 positions{angstrom}  cell{angstrom}
       O -3.12494e+00  1.06774e+00  3.52463e-01
       H -3.55256e+00  1.37550e+00 -4.32309e-01
       H -3.14676e+00  1.16075e-01  2.39568e-01
       H -3.08330e+00  1.63022e+00  1.28364e+00
4
# CELL(abcABC): 1000.00000  1000.00000  1000.00000    90.00000    90.00000    90.00000  Step:          19  Bead:       0 positions{angstrom}  cell{angstrom}
       O -3.12492e+00  1.06825e+00  3.50836e-01
       H -3.55394e+00  1.36802e+00 -4.31514e-01
       H -3.13729e+00  1.17950e-01  2.46880e-01
       H -3.09169e+00  1.62764e+00  1.30135e+00
4
# CELL(abcABC): 1000.00000  1000.00000  1000.00000    90.00000    90.00000    90.00000  Step:          20  Bead:       0 positions{angstrom}  cell{angstrom}
       O -3.12499e+00  1.06880e+00  3.49560e-01
       H -3.55553e+00  1.36235e+00 -4.35285e-01
       H -3.12807e+00  1.18944e-01  2.53716e-01
       H -3.09815e+00  1.62367e+00  1.31854e+00
4
# CELL(abcABC): 1000.00000  1000.00000  1000.00000    90.00000    90.00000    90.00000  Step:          21  Bead:       0 positions{angstrom}  cell{angstrom}
       O -3.12525e+00  1.06934e+00  3.48679e-01
       H -3.55777e+00  1.35746e+00 -4.43446e-01
       H -3.11654e+00  1.19377e-01  2.60616e-01
       H -3.10337e+00  1.61946e+00  1.33379e+00
4
# CELL(abcABC): 1000.00000  1000.00000  1000.00000    90.00000    90.00000    90.00000  Step:          22  Bead:       0 positions{angstrom}  cell{angstrom}
       O -3.12571e+00  1.06984e+00  3.48206e-01
       H -3.56103e+00  1.35265e+00 -4.53346e-01
       H -3.10208e+00  1.18911e-01  2.64864e-01
       H -3.10728e+00  1.61691e+00  1.34694e+00
4
# CELL(abcABC): 1000.00000  1000.00000  1000.00000    90.00000    90.00000    90.00000  Step:          23  Bead:       0 positions{angstrom}  cell{angstrom}
       O -3.12637e+00  1.07035e+00  3.48203e-01
       H -3.56361e+00  1.34898e+00 -4.65670e-01
       H -3.08583e+00  1.17926e-01  2.68324e-01
       H -3.11037e+00  1.61334e+00  1.35586e+00
4
# CELL(abcABC): 1000.00000  1000.00000  1000.00000    90.00000    90.00000    90.00000  Step:          24  Bead:       0 positions{angstrom}  cell{angstrom}
       O -3.12728e+00  1.07082e+00  3.48432e-01
       H -3.56453e+00  1.34450e+00 -4.78868e-01
       H -3.06823e+00  1.17264e-01  2.70765e-01
       H -3.11274e+00  1.61116e+00  1.36298e+00
4
# CELL(abcABC): 1000.00000  1000.00000  1000.00000    90.00000    90.00000    90.00000  Step:          25  Bead:       0 positions{angstrom}  cell{angstrom}
       O -3.12837e+00  1.07140e+00  3.48730e-01
       H -3.56394e+00  1.33888e+00 -4.91027e-01
       H -3.05006e+00  1.15465e-01  2.72077e-01
       H -3.11418e+00  1.60925e+00  1.36910e+00
4
# CELL(abcABC): 1000.00000  1000.00000  1000.00000    90.00000    90.00000    90.00000  Step:          26  Bead:       0 positions{angstrom}  cell{angstrom}
       O -3.12968e+00  1.07210e+00  3.49106e-01
       H -3.56145e+00  1.33222e+00 -5.02841e-01
       H -3.03072e+00  1.13349e-01  2.71885e-01
       H -3.11513e+00  1.60701e+00  1.37514e+00
4
# CELL(abcABC): 1000.00000  1000.00000  1000.00000    90.00000    90.00000    90.00000  Step:          27  Bead:       0 positions{angstrom}  cell{angstrom}
       O -3.13133e+00  1.07277e+00  3.49560e-01
       H -3.55700e+00  1.32600e+00 -5.13622e-01
       H -3.01065e+00  1.10942e-01  2.70091e-01
       H -3.11345e+00  1.60500e+00  1.38050e+00
4
# CELL(abcABC): 1000.00000  1000.00000  1000.00000    90.00000    90.00000    90.00000  Step:          28  Bead:       0 positions{angstrom}  cell{angstrom}
       O -3.13316e+00  1.07339e+00  3.49967e-01
       H -3.55135e+00  1.31767e+00 -5.22374e-01
       H -2.98946e+00  1.09890e-01  2.67348e-01
       H -3.11135e+00  1.60452e+00  1.38555e+00
4
# CELL(abcABC): 1000.00000  1000.00000  1000.00000    90.00000    90.00000    90.00000  Step:          29  Bead:       0 positions{angstrom}  cell{angstrom}
       O -3.13521e+00  1.07387e+00  3.50377e-01
       H -3.54278e+00  1.30913e+00 -5.30139e-01
       H -2.96890e+00  1.10615e-01  2.63491e-01
       H -3.10783e+00  1.60471e+00  1.39065e+00
4
# CELL(abcABC): 1000.00000  1000.00000  1000.00000    90.00000    90.00000    90.00000  Step:          30  Bead:       0 positions{angstrom}  cell{angstrom}
       O -3.13745e+00  1.07409e+00  3.50726e-01
       H -3.53173e+00  1.30116e+00 -5.34683e-01
       H -2.94853e+00  1.13547e-01  2.59048e-01
       H -3.10371e+00  1.60618e+00  1.39409e+00
4
# CELL(abcABC): 1000.00000  1000.00000  1000.00000    90.00000    90.00000    90.00000  Step:          31  Bead:       0 positions{angstrom}  cell{angstrom}
       O -3.13997e+00  1.07402e+00  3.51115e-01
       H -3.51732e+00  1.29312e+00 -5.36811e-01
       H -2.92774e+00  1.20072e-01  2.53079e-01
       H -3.09901e+00  1.60886e+00  1.39603e+00
4
# CELL(abcABC): 1000.00000  1000.00000  1000.00000    90.00000    90.00000    90.00000  Step:          32  Bead:       0 positions{angstrom}  cell{angstrom}
       O -3.14255e+00  1.07384e+00  3.51329e-01
       H -3.50249e+00  1.28323e+00 -5.36633e-01
       H -2.90676e+00  1.30224e-01  2.47551e-01
       H -3.09381e+00  1.61140e+00  1.39798e+00
4
# CELL(abcABC): 1000.00000  1000.00000  1000.00000    90.00000    90.00000    90.00000  Step:          33  Bead:       0 positions{angstrom}  cell{angstrom}
       O -3.14516e+00  1.07362e+00  3.51482e-01
       H -3.48751e+00  1.27295e+00 -5.34354e-01
       H -2.88585e+00  1.41286e-01  2.41879e-01
       H -3.08831e+00  1.61422e+00  1.39894e+00
4
# CELL(abcABC): 1000.00000  1000.00000  1000.00000    90.00000    90.00000    90.00000  Step:          34  Bead:       0 positions{angstrom}  cell{angstrom}
       O -3.14761e+00  1.07327e+00  3.51844e-01
       H -3.47206e+00  1.26314e+00 -5.32482e-01
       H -2.86721e+00  1.53213e-01  2.36057e-01
       H -3.08339e+00  1.61768e+00  1.39714e+00
4
# CELL(abcABC): 1000.00000  1000.00000  1000.00000    90.00000    90.00000    90.00000  Step:          35  Bead:       0 positions{angstrom}  cell{angstrom}
       O -3.15004e+00  1.07275e+00  3.52384e-01
       H -3.45554e+00  1.25423e+00 -5.32723e-01
       H -2.85020e+00  1.66762e-01  2.30583e-01
       H -3.07841e+00  1.62123e+00  1.39429e+00
4
# CELL(abcABC): 1000.00000  1000.00000  1000.00000    90.00000    90.00000    90.00000  Step:          36  Bead:       0 positions{angstrom}  cell{angstrom}
       O -3.15240e+00  1.07206e+00  3.53168e-01
       H -3.43993e+00  1.24665e+00 -5.35768e-01
       H -2.83333e+00  1.81415e-01  2.24085e-01
       H -3.07347e+00  1.62518e+00  1.39138e+00
4
# CELL(abcABC): 1000.00000  1000.00000  1000.00000    90.00000    90.00000    90.00000  Step:          37  Bead:       0 positions{angstrom}  cell{angstrom}
       O -3.15470e+00  1.07138e+00  3.54082e-01
       H -3.42520e+00  1.24142e+00 -5.39773e-01
       H -2.81593e+00  1.94278e-01  2.17034e-01
       H -3.06899e+00  1.62831e+00  1.38794e+00
4
# CELL(abcABC): 1000.00000  1000.00000  1000.00000    90.00000    90.00000    90.00000  Step:          38  Bead:       0 positions{angstrom}  cell{angstrom}
       O -3.15674e+00  1.07070e+00  3.55392e-01
       H -3.41321e+00  1.23767e+00 -5.47820e-01
       H -2.79816e+00  2.04118e-01  2.09766e-01
       H -3.06651e+00  1.63303e+00  1.38246e+00
4
# CELL(abcABC): 1000.00000  1000.00000  1000.00000    90.00000    90.00000    90.00000  Step:          39  Bead:       0 positions{angstrom}  cell{angstrom}
       O -3.15881e+00  1.07016e+00  3.56768e-01
       H -3.40225e+00  1.23501e+00 -5.57586e-01
       H -2.77953e+00  2.10577e-01  2.03658e-01
       H -3.06313e+00  1.63773e+00  1.37649e+00
4
# CELL(abcABC): 1000.00000  1000.00000  1000.00000    90.00000    90.00000    90.00000  Step:          40  Bead:       0 positions{angstrom}  cell{angstrom}
       O -3.16080e+00  1.06960e+00  3.58043e-01
       H -3.39294e+00  1.23406e+00 -5.67696e-01
       H -2.76030e+00  2.15193e-01  1.99710e-01
       H -3.06006e+00  1.64300e+00  1.37031e+00
4
# CELL(abcABC): 1000.00000  1000.00000  1000.00000    90.00000    90.00000    90.00000  Step:          41  Bead:       0 positions{angstrom}  cell{angstrom}
       O -3.16264e+00  1.06900e+00  3.59253e-01
       H -3.38551e+00  1.23523e+00 -5.78497e-01
       H -2.74039e+00  2.18707e-01  1.96883e-01
       H -3.05819e+00  1.64773e+00  1.36473e+00
4
# CELL(abcABC): 1000.00000  1000.00000  1000.00000    90.00000    90.00000    90.00000  Step:          42  Bead:       0 positions{angstrom}  cell{angstrom}
       O -3.16442e+00  1.06852e+00  3.60404e-01
       H -3.37806e+00  1.23567e+00 -5.88734e-01
       H -2.72055e+00  2.21455e-01  1.95470e-01
       H -3.05725e+00  1.65228e+00  1.35810e+00
4
# CELL(abcABC): 1000.00000  1000.00000  1000.00000    90.00000    90.00000    90.00000  Step:          43  Bead:       0 positions{angstrom}  cell{angstrom}
       O -3.16598e+00  1.06792e+00  3.61376e-01
       H -3.37216e+00  1.23776e+00 -5.97419e-01
       H -2.70140e+00  2.25462e-01  1.95572e-01
       H -3.05753e+00  1.65565e+00  1.35126e+00
4
# CELL(abcABC): 1000.00000  1000.00000  1000.00000    90.00000    90.00000    90.00000  Step:          44  Bead:       0 positions{angstrom}  cell{angstrom}
       O -3.16728e+00  1.06730e+00  3.62088e-01
       H -3.36725e+00  1.23977e+00 -6.03953e-01
       H -2.68341e+00  2.29539e-01  1.96627e-01
       H -3.05979e+00  1.65943e+00  1.34544e+00
4
# CELL(abcABC): 1000.00000  1000.00000  1000.00000    90.00000    90.00000    90.00000  Step:          45  Bead:       0 positions{angstrom}  cell{angstrom}
       O -3.16822e+00  1.06664e+00  3.62553e-01
       H -3.36399e+00  1.24226e+00 -6.07758e-01
       H -2.66638e+00  2.33930e-01  1.98382e-01
       H -3.06513e+00  1.66309e+00  1.34010e+00
4
# CELL(abcABC): 1000.00000  1000.00000  1000.00000    90.00000    90.00000    90.00000  Step:          46  Bead:       0 positions{angstrom}  cell{angstrom}
       O -3.16892e+00  1.06592e+00  3.62721e-01
       H -3.36185e+00  1.24552e+00 -6.08237e-01
       H -2.65146e+00  2.38771e-01  2.01181e-01
       H -3.07115e+00  1.66636e+00  1.33512e+00
4
# CELL(abcABC): 1000.00000  1000.00000  1000.00000    90.00000    90.00000    90.00000  Step:          47  Bead:       0 positions{angstrom}  cell{angstrom}
       O -3.16928e+00  1.06501e+00  3.62681e-01
       H -3.36065e+00  1.24851e+00 -6.04633e-01
       H -2.63867e+00  2.45346e-01  2.04563e-01
       H -3.07936e+00  1.67119e+00  1.32877e+00
4
# CELL(abcABC): 1000.00000  1000.00000  1000.00000    90.00000    90.00000    90.00000  Step:          48  Bead:       0 positions{angstrom}  cell{angstrom}
       O -3.16931e+00  1.06412e+00  3.62324e-01
       H -3.35991e+00  1.25036e+00 -5.97190e-01
       H -2.62827e+00  2.53996e-01  2.08527e-01
       H -3.09002e+00  1.67485e+00  1.32303e+00
4
# CELL(abcABC): 1000.00000  1000.00000  1000.00000    90.00000    90.00000    90.00000  Step:          49  Bead:       0 positions{angstrom}  cell{angstrom}
       O -3.16907e+00  1.06318e+00  3.61601e-01
       H -3.36014e+00  1.25160e+00 -5.86325e-01
       H -2.61895e+00  2.63545e-01  2.13756e-01
       H -3.10296e+00  1.67905e+00  1.31841e+00
4
# CELL(abcABC): 1000.00000  1000.00000  1000.00000    90.00000    90.00000    90.00000  Step:          50  Bead:       0 positions{angstrom}  cell{angstrom}
       O -3.16835e+00  1.06227e+00  3.60807e-01
       H -3.36188e+00  1.25286e+00 -5.74010e-01
       H -2.61344e+00  2.73119e-01  2.19998e-01
       H -3.11825e+00  1.68253e+00  1.31245e+00
4
# CELL(abcABC): 1000.00000  1000.00000  1000.00000    90.00000    90.00000    90.00000  Step:          51  Bead:       0 positions{angstrom}  cell{angstrom}
       O -3.16733e+00  1.06137e+00  3.59958e-01
       H -3.36539e+00  1.25373e+00 -5.61691e-01
       H -2.60997e+00  2.83119e-01  2.26752e-01
       H -3.13437e+00  1.68597e+00  1.30686e+00
4
# CELL(abcABC): 1000.00000  1000.00000  1000.00000    90.00000    90.00000    90.00000  Step:          52  Bead:       0 positions{angstrom}  cell{angstrom}
       O -3.16601e+00  1.06063e+00  3.59259e-01
       H -3.37092e+00  1.25453e+00 -5.50268e-01
       H -2.60797e+00  2.91875e-01  2.32718e-01
       H -3.15171e+00  1.68828e+00  1.30057e+00
4
# CELL(abcABC): 1000.00000  1000.00000  1000.00000    90.00000    90.00000    90.00000  Step:          53  Bead:       0 positions{angstrom}  cell{angstrom}
       O -3.16447e+00  1.05996e+00  3.58661e-01
       H -3.37770e+00  1.25613e+00 -5.41882e-01
       H -2.60690e+00  3.00597e-01  2.39389e-01
       H -3.17045e+00  1.68856e+00  1.29500e+00
4
# CELL(abcABC): 1000.00000  1000.00000  1000.00000    90.00000    90.00000    90.00000  Step:          54  Bead:       0 positions{angstrom}  cell{angstrom}
       O -3.16271e+00  1.05954e+00  3.57999e-01
       H -3.38645e+00  1.25718e+00 -5.35303e-01
       H -2.60618e+00  3.07715e-01  2.46645e-01
       H -3.19035e+00  1.68696e+00  1.29168e+00
4
# CELL(abcABC): 1000.00000  1000.00000  1000.00000    90.00000    90.00000    90.00000  Step:          55  Bead:       0 positions{angstrom}  cell{angstrom}
       O -3.16086e+00  1.05937e+00  3.57541e-01
       H -3.39763e+00  1.25867e+00 -5.31313e-01
       H -2.60459e+00  3.11848e-01  2.54143e-01
       H -3.21018e+00  1.68403e+00  1.28746e+00
4
# CELL(abcABC): 1000.00000  1000.00000  1000.00000    90.00000    90.00000    90.00000  Step:          56  Bead:       0 positions{angstrom}  cell{angstrom}
       O -3.15899e+00  1.05944e+00  3.57331e-01
       H -3.40829e+00  1.26060e+00 -5.30079e-01
       H -2.60198e+00  3.12185e-01  2.59900e-01
       H -3.23177e+00  1.68078e+00  1.28379e+00
4
# CELL(abcABC): 1000.00000  1000.00000  1000.00000    90.00000    90.00000    90.00000  Step:          57  Bead:       0 positions{angstrom}  cell{angstrom}
       O -3.15708e+00  1.05973e+00  3.57307e-01
       H -3.41865e+00  1.26306e+00 -5.31281e-01
       H -2.59915e+00  3.08546e-01  2.65863e-01
       H -3.25468e+00  1.67724e+00  1.27942e+00
4
# CELL(abcABC): 1000.00000  1000.00000  1000.00000    90.00000    90.00000    90.00000  Step:          58  Bead:       0 positions{angstrom}  cell{angstrom}
       O -3.15523e+00  1.06034e+00  3.57483e-01
       H -3.42866e+00  1.26445e+00 -5.34867e-01
       H -2.59485e+00  3.01803e-01  2.71619e-01
       H -3.27832e+00  1.67298e+00  1.27445e+00
4
# CELL(abcABC): 1000.00000  1000.00000  1000.00000    90.00000    90.00000    90.00000  Step:          59  Bead:       0 positions{angstrom}  cell{angstrom}
       O -3.15345e+00  1.06113e+00  3.57687e-01
       H -3.43791e+00  1.26530e+00 -5.39628e-01
       H -2.58957e+00  2.93315e-01  2.78149e-01
       H -3.30254e+00  1.66811e+00  1.26945e+00
4
# CELL(abcABC): 1000.00000  1000.00000  1000.00000    90.00000    90.00000    90.00000  Step:          60  Bead:       0 positions{angstrom}  cell{angstrom}
       O -3.15174e+00  1.06214e+00  3.58023e-01
       H -3.44778e+00  1.26481e+00 -5.44599e-01
       H -2.58343e+00  2.83015e-01  2.82314e-01
       H -3.32591e+00  1.66277e+00  1.26492e+00
4
# CELL(abcABC): 1000.00000  1000.00000  1000.00000    90.00000    90.00000    90.00000  Step:          61  Bead:       0 positions{angstrom}  cell{angstrom}
       O -3.15017e+00  1.06332e+00  3.58416e-01
       H -3.45580e+00  1.26259e+00 -5.49187e-01
       H -2.57666e+00  2.72483e-01  2.84424e-01
       H -3.34963e+00  1.65688e+00  1.26116e+00
4
# CELL(abcABC): 1000.00000  1000.00000  1000.00000    90.00000    90.00000    90.00000  Step:          62  Bead:       0 positions{angstrom}  cell{angstrom}
       O -3.14855e+00  1.06463e+00  3.58919e-01
       H -3.46325e+00  1.25818e+00 -5.52852e-01
       H -2.57244e+00  2.62635e-01  2.85303e-01
       H -3.37213e+00  1.65035e+00  1.25596e+00
4
# CELL(abcABC): 1000.00000  1000.00000  1000.00000    90.00000    90.00000    90.00000  Step:          63  Bead:       0 positions{angstrom}  cell{angstrom}
       O -3.14689e+00  1.06582e+00  3.59205e-01
       H -3.46870e+00  1.25338e+00 -5.54104e-01
       H -2.57054e+00  2.54123e-01  2.85349e-01
       H -3.39497e+00  1.64475e+00  1.25263e+00
4
# CELL(abcABC): 1000.00000  1000.00000  1000.00000    90.00000    90.00000    90.00000  Step:          64  Bead:       0 positions{angstrom}  cell{angstrom}
       O -3.14526e+00  1.06693e+00  3.59363e-01
       H -3.47108e+00  1.24761e+00 -5.52184e-01
       H -2.57069e+00  2.48135e-01  2.84829e-01
       H -3.41822e+00  1.63878e+00  1.24873e+00
4
# CELL(abcABC): 1000.00000  1000.00000  1000.00000    90.00000    90.00000    90.00000  Step:          65  Bead:       0 positions{angstrom}  cell{angstrom}
       O -3.14364e+00  1.06787e+00  3.59459e-01
       H -3.47242e+00  1.24147e+00 -5.49346e-01
       H -2.57273e+00  2.46572e-01  2.83644e-01
       H -3.44058e+00  1.63158e+00  1.24555e+00
4
# CELL(abcABC): 1000.00000  1000.00000  1000.00000    90.00000    90.00000    90.00000  Step:          66  Bead:       0 positions{angstrom}  cell{angstrom}
       O -3.14204e+00  1.06857e+00  3.59389e-01
       H -3.47217e+00  1.23723e+00 -5.44123e-01
       H -2.57703e+00  2.46795e-01  2.82353e-01
       H -3.46190e+00  1.62462e+00  1.24272e+00
4
# CELL(abcABC): 1000.00000  1000.00000  1000.00000    90.00000    90.00000    90.00000  Step:          67  Bead:       0 positions{angstrom}  cell{angstrom}
       O -3.14039e+00  1.06917e+00  3.59272e-01
       H -3.47017e+00  1.23184e+00 -5.38588e-01
       H -2.58291e+00  2.50225e-01  2.81226e-01
       H -3.48423e+00  1.61693e+00  1.24018e+00
4
# CELL(abcABC): 1000.00000  1000.00000  1000.00000    90.00000    90.00000    90.00000  Step:          68  Bead:       0 positions{angstrom}  cell{angstrom}
       O -3.13880e+00  1.06958e+00  3.59297e-01
       H -3.46633e+00  1.22619e+00 -5.32941e-01
       H -2.59000e+00  2.56404e-01  2.78208e-01
       H -3.50620e+00  1.60987e+00  1.23714e+00
4
# CELL(abcABC): 1000.00000  1000.00000  1000.00000    90.00000    90.00000    90.00000  Step:          69  Bead:       0 positions{angstrom}  cell{angstrom}
       O -3.13721e+00  1.06999e+00  3.59187e-01
       H -3.46196e+00  1.21927e+00 -5.26057e-01
       H -2.59858e+00  2.64602e-01  2.75855e-01
       H -3.52725e+00  1.60218e+00  1.23437e+00
4
# CELL(abcABC): 1000.00000  1000.00000  1000.00000    90.00000    90.00000    90.00000  Step:          70  Bead:       0 positions{angstrom}  cell{angstrom}
       O -3.13587e+00  1.07018e+00  3.59186e-01
       H -3.45671e+00  1.21342e+00 -5.21516e-01
       H -2.60682e+00  2.74451e-01  2.73029e-01
       H -3.54550e+00  1.59511e+00  1.23267e+00
4
# CELL(abcABC): 1000.00000  1000.00000  1000.00000    90.00000    90.00000    90.00000  Step:          71  Bead:       0 positions{angstrom}  cell{angstrom}
       O -3.13464e+00  1.07044e+00  3.59407e-01
       H -3.45200e+00  1.20715e+00 -5.20579e-01
       H -2.61430e+00  2.83378e-01  2.69602e-01
       H -3.56234e+00  1.58837e+00  1.23165e+00
4
# CELL(abcABC): 1000.00000  1000.00000  1000.00000    90.00000    90.00000    90.00000  Step:          72  Bead:       0 positions{angstrom}  cell{angstrom}
       O -3.13365e+00  1.07065e+00  3.59749e-01
       H -3.44697e+00  1.20196e+00 -5.21908e-01
       H -2.61935e+00  2.90786e-01  2.66824e-01
       H -3.57793e+00  1.58283e+00  1.23033e+00
4
# CELL(abcABC): 1000.00000  1000.00000  1000.00000    90.00000    90.00000    90.00000  Step:          73  Bead:       0 positions{angstrom}  cell{angstrom}
       O -3.13290e+00  1.07100e+00  3.60327e-01
       H -3.44216e+00  1.19748e+00 -5.25954e-01
       H -2.62136e+00  2.95822e-01  2.64050e-01
       H -3.59272e+00  1.57671e+00  1.22797e+00
4
# CELL(abcABC): 1000.00000  1000.00000  1000.00000    90.00000    90.00000    90.00000  Step:          74  Bead:       0 positions{angstrom}  cell{angstrom}
       O -3.13248e+00  1.07143e+00  3.61201e-01
       H -3.43703e+00  1.19398e+00 -5.33501e-01
       H -2.61985e+00  2.97523e-01  2.60191e-01
       H -3.60594e+00  1.57163e+00  1.22551e+00
4
# CELL(abcABC): 1000.00000  1000.00000  1000.00000    90.00000    90.00000    90.00000  Step:          75  Bead:       0 positions{angstrom}  cell{angstrom}
       O -3.13224e+00  1.07204e+00  3.62149e-01
       H -3.43217e+00  1.19033e+00 -5.42982e-01
       H -2.61537e+00  2.95281e-01  2.57332e-01
       H -3.61921e+00  1.56783e+00  1.22279e+00
4
# CELL(abcABC): 1000.00000  1000.00000  1000.00000    90.00000    90.00000    90.00000  Step:          76  Bead:       0 positions{angstrom}  cell{angstrom}
       O -3.13238e+00  1.07262e+00  3.62966e-01
       H -3.42597e+00  1.18772e+00 -5.51725e-01
       H -2.60793e+00  2.90401e-01  2.55025e-01
       H -3.63052e+00  1.56610e+00  1.22087e+00
4
# CELL(abcABC): 1000.00000  1000.00000  1000.00000    90.00000    90.00000    90.00000  Step:          77  Bead:       0 positions{angstrom}  cell{angstrom}
       O -3.13272e+00  1.07320e+00  3.63665e-01
       H -3.41911e+00  1.18673e+00 -5.59950e-01
       H -2.59861e+00  2.84229e-01  2.54039e-01
       H -3.64133e+00  1.56411e+00  1.21899e+00
4
# CELL(abcABC): 1000.00000  1000.00000  1000.00000    90.00000    90.00000    90.00000  Step:          78  Bead:       0 positions{angstrom}  cell{angstrom}
       O -3.13323e+00  1.07374e+00  3.64382e-01
       H -3.41254e+00  1.18575e+00 -5.67872e-01
       H -2.58697e+00  2.78353e-01  2.53728e-01
       H -3.65150e+00  1.56245e+00  1.21584e+00
4
# CELL(abcABC): 1000.00000  1000.00000  1000.00000    90.00000    90.00000    90.00000  Step:          79  Bead:       0 positions{angstrom}  cell{angstrom}
       O -3.13397e+00  1.07425e+00  3.64867e-01
       H -3.40563e+00  1.18592e+00 -5.72612e-01
       H -2.57337e+00  2.72529e-01  2.54329e-01
       H -3.66028e+00  1.55998e+00  1.21228e+00
4
# CELL(abcABC): 1000.00000  1000.00000  1000.00000    90.00000    90.00000    90.00000  Step:          80  Bead:       0 positions{angstrom}  cell{angstrom}
       O -3.13492e+00  1.07458e+00  3.65014e-01
       H -3.39732e+00  1.18697e+00 -5.75126e-01
       H -2.55950e+00  2.68577e-01  2.57241e-01
       H -3.66740e+00  1.55759e+00  1.20955e+00
4
# CELL(abcABC): 1000.00000  1000.00000  1000.00000    90.00000    90.00000    90.00000  Step:          81  Bead:       0 positions{angstrom}  cell{angstrom}
       O -3.13599e+00  1.07452e+00  3.64988e-01
       H -3.38599e+00  1.18951e+00 -5.76045e-01
       H -2.54708e+00  2.69637e-01  2.61680e-01
       H -3.67415e+00  1.55495e+00  1.20645e+00
4
# CELL(abcABC): 1000.00000  1000.00000  1000.00000    90.00000    90.00000    90.00000  Step:          82  Bead:       0 positions{angstrom}  cell{angstrom}
       O -3.13707e+00  1.07431e+00  3.64645e-01
       H -3.37317e+00  1.19211e+00 -5.74225e-01
       H -2.53564e+00  2.73170e-01  2.67397e-01
       H -3.68120e+00  1.55223e+00  1.20436e+00
4
# CELL(abcABC): 1000.00000  1000.00000  1000.00000    90.00000    90.00000    90.00000  Step:          83  Bead:       0 positions{angstrom}  cell{angstrom}
       O -3.13816e+00  1.07371e+00  3.64124e-01
       H -3.35974e+00  1.19584e+00 -5.70605e-01
       H -2.52588e+00  2.81042e-01  2.74409e-01
       H -3.68707e+00  1.55003e+00  1.20200e+00
4
# CELL(abcABC): 1000.00000  1000.00000  1000.00000    90.00000    90.00000    90.00000  Step:          84  Bead:       0 positions{angstrom}  cell{angstrom}
       O -3.13917e+00  1.07282e+00  3.63517e-01
       H -3.34494e+00  1.19962e+00 -5.67461e-01
       H -2.51890e+00  2.92964e-01  2.82473e-01
       H -3.69277e+00  1.54860e+00  1.20042e+00
4
# CELL(abcABC): 1000.00000  1000.00000  1000.00000    90.00000    90.00000    90.00000  Step:          85  Bead:       0 positions{angstrom}  cell{angstrom}