4
# CELL(abcABC): 1000.00000  1000.00000  1000.00000    90.00000    90.00000    90.00000  Step:           0  Bead:       0 positions{angstrom}  cell{angstrom}
       O -3.14113e+00  1.07133e+00  3.42505e-01
       H -2.59096e+00  4.64287e-01  7.82647e-01
       H -3.27483e+00  1.86703e+00  8.17286e-01
       H -3.65977e+00  7.33570e-01 -3.51013e-01
4
# CELL(abcABC): 1000.00000  1000.00000  1000.00000    90.00000    90.00000    90.00000  Step:           1  Bead:       0 positions{angstrom}  cell{angstrom}
       O -3.13951e+00  1.07157e+00  3.41868e-01
       H -2.59905e+00  4.56097e-01  7.88298e-01
       H -3.27463e+00  1.86821e+00  8.19429e-01
       H -3.67756e+00  7.36796e-01 -3.48693e-01
4
# CELL(abcABC): 1000.00000  1000.00000  1000.00000    90.00000    90.00000    90.00000  Step:           2  Bead:       0 positions{angstrom}  cell{angstrom}
       O -3.13811e+00  1.07169e+00  3.41038e-01
       H -2.60445e+00  4.46384e-01  7.97080e-01
       H -3.27268e+00  1.87272e+00  8.23431e-01
       H -3.69639e+00  7.40087e-01 -3.48298e-01
4
# CELL(abcABC): 1000.00000  1000.00000  1000.00000    90.00000    90.00000    90.00000  Step:           3  Bead:       0 positions{angstrom}  cell{angstrom}
       O -3.13678e+00  1.07174e+00  3.39983e-01
       H -2.60715e+00  4.34430e-01  8.09752e-01
       H -3.27072e+00  1.88099e+00  8.29550e-01
       H -3.71675e+00  7.42887e-01 -3.50355e-01
4
# CELL(abcABC): 1000.00000  1000.00000  1000.00000    90.00000    90.00000    90.00000  Step:           4  Bead:       0 positions{angstrom}  cell{angstrom}
       O -3.13556e+00  1.07176e+00  3.38936e-01
       H -2.60895e+00  4.21290e-01  8.22583e-01
       H -3.26764e+00  1.89141e+00  8.36050e-01
       H -3.73739e+00  7.45436e-01 -3.53063e-01
4
# CELL(abcABC): 1000.00000  1000.00000  1000.00000    90.00000    90.00000    90.00000  Step:           5  Bead:       0 positions{angstrom}  cell{angstrom}
       O -3.13431e+00  1.07156e+00  3.37939e-01
       H -2.61143e+00  4.09294e-01  8.35474e-01
       H -3.26451e+00  1.90323e+00  8.43656e-01
       H -3.75793e+00  7.48653e-01 -3.57737e-01
4
# CELL(abcABC): 1000.00000  1000.00000  1000.00000    90.00000    90.00000    90.00000  Step:           6  Bead:       0 positions{angstrom}  cell{angstrom}
       O -3.13300e+00  1.07138e+00  3.37066e-01
       H -2.61453e+00  3.99601e-01  8.46941e-01
       H -3.26111e+00  1.91232e+00  8.49578e-01
       H -3.77901e+00  7.52148e-01 -3.61271e-01
4
# CELL(abcABC): 1000.00000  1000.00000  1000.00000    90.00000    90.00000    90.00000  Step:           7  Bead:       0 positions{angstrom}  cell{angstrom}
       O -3.13179e+00  1.07105e+00  3.36139e-01
       H -2.61742e+00  3.92625e-01  8.58592e-01
       H -3.25685e+00  1.91888e+00  8.55055e-01
       H -3.79950e+00  7.57892e-01 -3.63680e-01
4
# CELL(abcABC): 1000.00000  1000.00000  1000.00000    90.00000    90.00000    90.00000  Step:           8  Bead:       0 positions{angstrom}  cell{angstrom}
       O -3.13074e+00  1.07067e+00  3.35441e-01
       H -2.62093e+00  3.88867e-01  8.67948e-01
       H -3.25045e+00  1.92154e+00  8.58238e-01
       H -3.81917e+00  7.64876e-01 -3.65129e-01
4
# CELL(abcABC): 1000.00000  1000.00000  1000.00000    90.00000    90.00000    90.00000  Step:           9  Bead:       0 positions{angstrom}  cell{angstrom}
       O -3.12980e+00  1.07034e+00  3.34801e-01
       H -2.62611e+00  3.87678e-01  8.76438e-01
       H -3.24182e+00  1.92099e+00  8.60182e-01
       H -3.83748e+00  7.71860e-01 -3.65410e-01
4
# CELL(abcABC): 1000.00000  1000.00000  1000.00000    90.00000    90.00000    90.00000  Step:          10  Bead:       0 positions{angstrom}  cell{angstrom}
       O -3.12896e+00  1.06990e+00  3.34471e-01
       H -2.63282e+00  3.89877e-01  8.81941e-01
       H -3.23186e+00  1.91769e+00  8.59520e-01
       H -3.85412e+00  7.80073e-01 -3.65010e-01
4
# CELL(abcABC): 1000.00000  1000.00000  1000.00000    90.00000    90.00000    90.00000  Step:          11  Bead:       0 positions{angstrom}  cell{angstrom}
       O -3.12823e+00  1.06941e+00  3.34451e-01
       H -2.64063e+00  3.95929e-01  8.83911e-01
       H -3.22209e+00  1.91096e+00  8.56693e-01
       H -3.86766e+00  7.88520e-01 -3.63842e-01
4
# CELL(abcABC): 1000.00000  1000.00000  1000.00000    90.00000    90.00000    90.00000  Step:          12  Bead:       0 positions{angstrom}  cell{angstrom}
       O -3.12779e+00  1.06893e+00  3.34631e-01
       H -2.64800e+00  4.04350e-01  8.83612e-01
       H -3.21149e+00  1.90049e+00  8.51438e-01
       H -3.87788e+00  7.98182e-01 -3.61142e-01
4
# CELL(abcABC): 1000.00000  1000.00000  1000.00000    90.00000    90.00000    90.00000  Step:          13  Bead:       0 positions{angstrom}  cell{angstrom}
       O -3.12761e+00  1.06840e+00  3.34847e-01
       H -2.65554e+00  4.15101e-01  8.82103e-01
       H -3.19888e+00  1.88848e+00  8.45356e-01
       H -3.88571e+00  8.07766e-01 -3.56975e-01
4
# CELL(abcABC): 1000.00000  1000.00000  1000.00000    90.00000    90.00000    90.00000  Step:          14  Bead:       0 positions{angstrom}  cell{angstrom}
       O -3.12774e+00  1.06778e+00  3.34987e-01
       H -2.66125e+00  4.26259e-01  8.80274e-01
       H -3.18529e+00  1.87713e+00  8.39163e-01
       H -3.89152e+00  8.17835e-01 -3.51181e-01
4
# CELL(abcABC): 1000.00000  1000.00000  1000.00000    90.00000    90.00000    90.00000  Step:          15  Bead:       0 positions{angstrom}  cell{angstrom}
       O -3.12808e+00  1.06694e+00  3.34776e-01
       H -2.66782e+00  4.36491e-01  8.80616e-01
       H -3.17206e+00  1.86795e+00  8.33865e-01
       H -3.89287e+00  8.30056e-01 -3.42874e-01
4
# CELL(abcABC): 1000.00000  1000.00000  1000.00000    90.00000    90.00000    90.00000  Step:          16  Bead:       0 positions{angstrom}  cell{angstrom}
       O -3.12874e+00  1.06592e+00  3.34350e-01
       H -2.67169e+00  4.44868e-01  8.81323e-01
       H -3.15898e+00  1.86288e+00  8.29966e-01
       H -3.89159e+00  8.43050e-01 -3.32916e-01
4
# CELL(abcABC): 1000.00000  1000.00000  1000.00000    90.00000    90.00000    90.00000  Step:          17  Bead:       0 positions{angstrom}  cell{angstrom}
       O -3.12959e+00  1.06477e+00  3.33665e-01
       H -2.67282e+00  4.51381e-01  8.83441e-01
       H -3.14705e+00  1.86238e+00  8.26743e-01
       H -3.88894e+00  8.55203e-01 -3.20945e-01
4
# CELL(abcABC): 1000.00000  1000.00000  1000.00000    90.00000    90.00000    90.00000  Step:          18  Bead:       0 positions{angstrom}  cell{angstrom}
       O -3.13065e+00  1.06345e+00  3.32734e-01
       H -2.67280e+00  4.55907e-01  8.87134e-01
       H -3.13426e+00  1.86602e+00  8.25003e-01
       H -3.88491e+00  8.67974e-01 -3.08114e-01
4
# CELL(abcABC): 1000.00000  1000.00000  1000.00000    90.00000    90.00000    90.00000  Step:          19  Bead:       0 positions{angstrom}  cell{angstrom}
       O -3.13201e+00  1.06215e+00  3.31597e-01
       H -2.67023e+00  4.57296e-01  8.92630e-01
       H -3.12251e+00  1.87278e+00  8.23712e-01
       H -3.87758e+00  8.80505e-01 -2.94273e-01
4
# CELL(abcABC): 1000.00000  1000.00000  1000.00000    90.00000    90.00000    90.00000  Step:          20  Bead:       0 positions{angstrom}  cell{angstrom}
       O -3.13351e+00  1.06092e+00  3.30436e-01
       H -2.66582e+00  4.56396e-01  8.97605e-01
       H -3.11202e+00  1.88247e+00  8.23127e-01
       H -3.86859e+00  8.91260e-01 -2.80239e-01
4
# CELL(abcABC): 1000.00000  1000.00000  1000.00000    90.00000    90.00000    90.00000  Step:          21  Bead:       0 positions{angstrom}  cell{angstrom}
       O -3.13517e+00  1.05978e+00  3.29402e-01
       H -2.66059e+00  4.52755e-01  9.01626e-01
       H -3.10026e+00  1.89432e+00  8.23177e-01
       H -3.85939e+00  9.01126e-01 -2.67889e-01
4
# CELL(abcABC): 1000.00000  1000.00000  1000.00000    90.00000    90.00000    90.00000  Step:          22  Bead:       0 positions{angstrom}  cell{angstrom}
       O -3.13687e+00  1.05872e+00  3.28665e-01
       H -2.65586e+00  4.46648e-01  9.06087e-01
       H -3.08665e+00  1.90667e+00  8.20471e-01
       H -3.85067e+00  9.11702e-01 -2.57951e-01
4
# CELL(abcABC): 1000.00000  1000.00000  1000.00000    90.00000    90.00000    90.00000  Step:          23  Bead:       0 positions{angstrom}  cell{angstrom}
       O -3.13851e+00  1.05785e+00  3.28455e-01
       H -2.65105e+00  4.40262e-01  9.08742e-01
       H -3.07237e+00  1.91852e+00  8.16319e-01
       H -3.84374e+00  9.20087e-01 -2.53124e-01
4
# CELL(abcABC): 1000.00000  1000.00000  1000.00000    90.00000    90.00000    90.00000  Step:          24  Bead:       0 positions{angstrom}  cell{angstrom}
       O -3.14000e+00  1.05710e+00  3.28694e-01
       H -2.64631e+00  4.32766e-01  9.09485e-01
       H -3.05793e+00  1.92943e+00  8.10074e-01
       H -3.83923e+00  9.28505e-01 -2.51406e-01
4
# CELL(abcABC): 1000.00000  1000.00000  1000.00000    90.00000    90.00000    90.00000  Step:          25  Bead:       0 positions{angstrom}  cell{angstrom}
       O -3.14122e+00  1.05669e+00  3.29346e-01
       H -2.64277e+00  4.24804e-01  9.08748e-01
       H -3.04409e+00  1.93684e+00  8.01364e-01
       H -3.83731e+00  9.35703e-01 -2.52320e-01
4
# CELL(abcABC): 1000.00000  1000.00000  1000.00000    90.00000    90.00000    90.00000  Step:          26  Bead:       0 positions{angstrom}  cell{angstrom}
       O -3.14214e+00  1.05658e+00  3.30501e-01
       H -2.64077e+00  4.17252e-01  9.04723e-01
       H -3.03024e+00  1.94066e+00  7.89768e-01
       H -3.83846e+00  9.41032e-01 -2.55024e-01
4
# CELL(abcABC): 1000.00000  1000.00000  1000.00000    90.00000    90.00000    90.00000  Step:          27  Bead:       0 positions{angstrom}  cell{angstrom}
       O -3.14289e+00  1.05668e+00  3.32188e-01
       H -2.64065e+00  4.12063e-01  8.97368e-01
       H -3.01668e+00  1.94031e+00  7.75354e-01
       H -3.84036e+00  9.45045e-01 -2.60036e-01
4
# CELL(abcABC): 1000.00000  1000.00000  1000.00000    90.00000    90.00000    90.00000  Step:          28  Bead:       0 positions{angstrom}  cell{angstrom}
       O -3.14332e+00  1.05696e+00  3.34260e-01
       H -2.64321e+00  4.06805e-01  8.87390e-01
       H -3.00277e+00  1.93716e+00  7.59142e-01
       H -3.84487e+00  9.49055e-01 -2.66736e-01
4
# CELL(abcABC): 1000.00000  1000.00000  1000.00000    90.00000    90.00000    90.00000  Step:          29  Bead:       0 positions{angstrom}  cell{angstrom}
       O -3.14357e+00  1.05732e+00  3.36703e-01
       H -2.64647e+00  4.03177e-01  8.73896e-01
       H -2.98994e+00  1.93183e+00  7.41469e-01
       H -3.85037e+00  9.52299e-01 -2.74347e-01
4
# CELL(abcABC): 1000.00000  1000.00000  1000.00000    90.00000    90.00000    90.00000  Step:          30  Bead:       0 positions{angstrom}  cell{angstrom}
       O -3.14371e+00  1.05763e+00  3.39348e-01
       H -2.65024e+00  4.01467e-01  8.59656e-01
       H -2.97730e+00  1.92544e+00  7.23479e-01
       H -3.85705e+00  9.55442e-01 -2.84106e-01
4
# CELL(abcABC): 1000.00000  1000.00000  1000.00000    90.00000    90.00000    90.00000  Step:          31  Bead:       0 positions{angstrom}  cell{angstrom}
       O -3.14396e+00  1.05783e+00  3.42159e-01
       H -2.65274e+00  4.00220e-01  8.44843e-01
       H -2.96373e+00  1.92045e+00  7.04883e-01
       H -3.86418e+00  9.58541e-01 -2.95308e-01
4
# CELL(abcABC): 1000.00000  1000.00000  1000.00000    90.00000    90.00000    90.00000  Step:          32  Bead:       0 positions{angstrom}  cell{angstrom}
       O -3.14426e+00  1.05807e+00  3.44770e-01
       H -2.65582e+00  3.96704e-01  8.30629e-01
       H -2.94902e+00  1.91826e+00  6.88188e-01
       H -3.87108e+00  9.60361e-01 -3.05855e-01
4
# CELL(abcABC): 1000.00000  1000.00000  1000.00000    90.00000    90.00000    90.00000  Step:          33  Bead:       0 positions{angstrom}  cell{angstrom}
       O -3.14470e+00  1.05839e+00  3.47154e-01
       H -2.65856e+00  3.91476e-01  8.18253e-01
       H -2.93308e+00  1.91737e+00  6.73129e-01
       H -3.87727e+00  9.61445e-01 -3.16250e-01
4
# CELL(abcABC): 1000.00000  1000.00000  1000.00000    90.00000    90.00000    90.00000  Step:          34  Bead:       0 positions{angstrom}  cell{angstrom}
       O -3.14522e+00  1.05869e+00  3.49446e-01
       H -2.65965e+00  3.84621e-01  8.06713e-01
       H -2.91791e+00  1.91871e+00  6.59836e-01
       H -3.88303e+00  9.62262e-01 -3.27803e-01
4
# CELL(abcABC): 1000.00000  1000.00000  1000.00000    90.00000    90.00000    90.00000  Step:          35  Bead:       0 positions{angstrom}  cell{angstrom}
       O -3.14604e+00  1.05890e+00  3.51512e-01
       H -2.65762e+00  3.76090e-01  7.95588e-01
       H -2.90281e+00  1.92370e+00  6.48764e-01
       H -3.88721e+00  9.62410e-01 -3.38406e-01
4
# CELL(abcABC): 1000.00000  1000.00000  1000.00000    90.00000    90.00000    90.00000  Step:          36  Bead:       0 positions{angstrom}  cell{angstrom}
       O -3.14716e+00  1.05900e+00  3.53365e-01
       H -2.65398e+00  3.66192e-01  7.85009e-01
       H -2.88650e+00  1.93211e+00  6.38273e-01
       H -3.88943e+00  9.62287e-01 -3.46750e-01
4
# CELL(abcABC): 1000.00000  1000.00000  1000.00000    90.00000    90.00000    90.00000  Step:          37  Bead:       0 positions{angstrom}  cell{angstrom}
       O -3.14859e+00  1.05917e+00  3.54893e-01
       H -2.64854e+00  3.56204e-01  7.77025e-01
       H -2.86881e+00  1.94091e+00  6.28398e-01
       H -3.88984e+00  9.60807e-01 -3.53139e-01
4
# CELL(abcABC): 1000.00000  1000.00000  1000.00000    90.00000    90.00000    90.00000  Step:          38  Bead:       0 positions{angstrom}  cell{angstrom}
       O -3.15008e+00  1.05938e+00  3.56402e-01
       H -2.64335e+00  3.45809e-01  7.68328e-01
       H -2.85044e+00  1.94835e+00  6.18994e-01
       H -3.88975e+00  9.60474e-01 -3.58988e-01
4
# CELL(abcABC): 1000.00000  1000.00000  1000.00000    90.00000    90.00000    90.00000  Step:          39  Bead:       0 positions{angstrom}  cell{angstrom}
       O -3.15191e+00  1.05977e+00  3.57649e-01
       H -2.63708e+00  3.35326e-01  7.60288e-01
       H -2.83128e+00  1.95323e+00  6.10975e-01
       H -3.88611e+00  9.59777e-01 -3.62736e-01
4
# CELL(abcABC): 1000.00000  1000.00000  1000.00000    90.00000    90.00000    90.00000  Step:          40  Bead:       0 positions{angstrom}  cell{angstrom}
       O -3.15390e+00  1.06019e+00  3.58583e-01
       H -2.63095e+00  3.26269e-01  7.52987e-01
       H -2.81176e+00  1.95598e+00  6.04887e-01
       H -3.88009e+00  9.59407e-01 -3.64173e-01
4
# CELL(abcABC): 1000.00000  1000.00000  1000.00000    90.00000    90.00000    90.00000  Step:          41  Bead:       0 positions{angstrom}  cell{angstrom}
       O -3.15595e+00  1.06065e+00  3.59363e-01
       H -2.62580e+00  3.19906e-01  7.44717e-01
       H -2.79183e+00  1.95613e+00  5.99270e-01
       H -3.87263e+00  9.58343e-01 -3.62665e-01
4
# CELL(abcABC): 1000.00000  1000.00000  1000.00000    90.00000    90.00000    90.00000  Step:          42  Bead:       0 positions{angstrom}  cell{angstrom}
       O -3.15811e+00  1.06131e+00  3.60120e-01
       H -2.62023e+00  3.14057e-01  7.35379e-01
       H -2.77220e+00  1.95287e+00  5.94062e-01
       H -3.86360e+00  9.57003e-01 -3.60127e-01
4
# CELL(abcABC): 1000.00000  1000.00000  1000.00000    90.00000    90.00000    90.00000  Step:          43  Bead:       0 positions{angstrom}  cell{angstrom}
       O -3.16019e+00  1.06196e+00  3.60845e-01
       H -2.61631e+00  3.11738e-01  7.24767e-01
       H -2.75327e+00  1.94731e+00  5.89060e-01
       H -3.85349e+00  9.54501e-01 -3.56027e-01
4
# CELL(abcABC): 1000.00000  1000.00000  1000.00000    90.00000    90.00000    90.00000  Step:          44  Bead:       0 positions{angstrom}  cell{angstrom}
       O -3.16212e+00  1.06271e+00  3.61551e-01
       H -2.61369e+00  3.11491e-01  7.12587e-01
       H -2.73537e+00  1.93773e+00  5.83506e-01
       H -3.84333e+00  9.52489e-01 -3.49496e-01
4
# CELL(abcABC): 1000.00000  1000.00000  1000.00000    90.00000    90.00000    90.00000  Step:          45  Bead:       0 positions{angstrom}  cell{angstrom}
       O -3.16380e+00  1.06353e+00  3.62317e-01
       H -2.61317e+00  3.13938e-01  6.98871e-01
       H -2.71802e+00  1.92427e+00  5.77063e-01
       H -3.83458e+00  9.50532e-01 -3.41497e-01
4
# CELL(abcABC): 1000.00000  1000.00000  1000.00000    90.00000    90.00000    90.00000  Step:          46  Bead:       0 positions{angstrom}  cell{angstrom}
       O -3.16534e+00  1.06440e+00  3.63127e-01
       H -2.61406e+00  3.19083e-01  6.84046e-01
       H -2.70201e+00  1.90736e+00  5.70107e-01
       H -3.82520e+00  9.48432e-01 -3.32568e-01
4
# CELL(abcABC): 1000.00000  1000.00000  1000.00000    90.00000    90.00000    90.00000  Step:          47  Bead:       0 positions{angstrom}  cell{angstrom}
       O -3.16669e+00  1.06518e+00  3.64075e-01
       H -2.61585e+00  3.25268e-01  6.69102e-01
       H -2.68690e+00  1.88909e+00  5.62334e-01
       H -3.81715e+00  9.48222e-01 -3.24910e-01
4
# CELL(abcABC): 1000.00000  1000.00000  1000.00000    90.00000    90.00000    90.00000  Step:          48  Bead:       0 positions{angstrom}  cell{angstrom}
       O -3.16786e+00  1.06603e+00  3.65024e-01
       H -2.61758e+00  3.30745e-01  6.54440e-01
       H -2.67254e+00  1.87101e+00  5.53983e-01
       H -3.81113e+00  9.47257e-01 -3.16957e-01
4
# CELL(abcABC): 1000.00000  1000.00000  1000.00000    90.00000    90.00000    90.00000  Step:          49  Bead:       0 positions{angstrom}  cell{angstrom}
       O -3.16896e+00  1.06686e+00  3.65863e-01
       H -2.61917e+00  3.35093e-01  6.40668e-01
       H -2.65732e+00  1.85348e+00  5.46032e-01
       H -3.80740e+00  9.47334e-01 -3.08547e-01
4
# CELL(abcABC): 1000.00000  1000.00000  1000.00000    90.00000    90.00000    90.00000  Step:          50  Bead:       0 positions{angstrom}  cell{angstrom}
       O -3.16977e+00  1.06770e+00  3.66801e-01
       H -2.62064e+00  3.37996e-01  6.27188e-01
       H -2.64380e+00  1.83716e+00  5.38533e-01
       H -3.80644e+00  9.47291e-01 -3.02465e-01
4
# CELL(abcABC): 1000.00000  1000.00000  1000.00000    90.00000    90.00000    90.00000  Step:          51  Bead:       0 positions{angstrom}  cell{angstrom}
       O -3.17052e+00  1.06848e+00  3.67746e-01
       H -2.62174e+00  3.38146e-01  6.14071e-01
       H -2.63020e+00  1.82415e+00  5.31338e-01
       H -3.80704e+00  9.47905e-01 -2.97146e-01
4
# CELL(abcABC): 1000.00000  1000.00000  1000.00000    90.00000    90.00000    90.00000  Step:          52  Bead:       0 positions{angstrom}  cell{angstrom}
       O -3.17118e+00  1.06926e+00  3.68792e-01
       H -2.62241e+00  3.35250e-01  6.01895e-01
       H -2.61626e+00  1.81425e+00  5.23473e-01
       H -3.80983e+00  9.48229e-01 -2.93707e-01
4
# CELL(abcABC): 1000.00000  1000.00000  1000.00000    90.00000    90.00000    90.00000  Step:          53  Bead:       0 positions{angstrom}  cell{angstrom}
       O -3.17179e+00  1.06993e+00  3.69792e-01
       H -2.62177e+00  3.29943e-01  5.89780e-01
       H -2.60200e+00  1.80976e+00  5.16683e-01
       H -3.81514e+00  9.47476e-01 -2.90683e-01
4
# CELL(abcABC): 1000.00000  1000.00000  1000.00000    90.00000    90.00000    90.00000  Step:          54  Bead:       0 positions{angstrom}  cell{angstrom}
       O -3.17226e+00  1.07059e+00  3.70512e-01
       H -2.62073e+00  3.21070e-01  5.79708e-01
       H -2.58788e+00  1.80964e+00  5.11039e-01
       H -3.82278e+00  9.45925e-01 -2.86387e-01
4
# CELL(abcABC): 1000.00000  1000.00000  1000.00000    90.00000    90.00000    90.00000  Step:          55  Bead:       0 positions{angstrom}  cell{angstrom}
       O -3.17261e+00  1.07119e+00  3.71174e-01
       H -2.62029e+00  3.10375e-01  5.71288e-01
       H -2.57398e+00  1.81251e+00  5.06335e-01
       H -3.83158e+00  9.44229e-01 -2.83780e-01
4
# CELL(abcABC): 1000.00000  1000.00000  1000.00000    90.00000    90.00000    90.00000  Step:          56  Bead:       0 positions{angstrom}  cell{angstrom}
       O -3.17280e+00  1.07168e+00  3.71809e-01
       H -2.61818e+00  2.98862e-01  5.64246e-01
       H -2.56135e+00  1.81696e+00  5.00682e-01
       H -3.84333e+00  9.43523e-01 -2.81156e-01
4
# CELL(abcABC): 1000.00000  1000.00000  1000.00000    90.00000    90.00000    90.00000  Step:          57  Bead:       0 positions{angstrom}  cell{angstrom}
       O -3.17269e+00  1.07205e+00  3.72362e-01
       H -2.61553e+00  2.87885e-01  5.58374e-01
       H -2.55159e+00  1.82175e+00  4.96072e-01
       H -3.85744e+00  9.43897e-01 -2.79463e-01
4
# CELL(abcABC): 1000.00000  1000.00000  1000.00000    90.00000    90.00000    90.00000  Step:          58  Bead:       0 positions{angstrom}  cell{angstrom}
       O -3.17234e+00  1.07236e+00  3.72877e-01
       H -2.61326e+00  2.77091e-01  5.52879e-01
       H -2.54380e+00  1.82648e+00  4.92133e-01
       H -3.87311e+00  9.44989e-01 -2.78201e-01
4
# CELL(abcABC): 1000.00000  1000.00000  1000.00000    90.00000    90.00000    90.00000  Step:          59  Bead:       0 positions{angstrom}  cell{angstrom}
       O -3.17171e+00  1.07251e+00  3.73222e-01
       H -2.61190e+00  2.68228e-01  5.47923e-01
       H -2.53838e+00  1.83092e+00  4.89856e-01
       H -3.88991e+00  9.46943e-01 -2.76442e-01
4
# CELL(abcABC): 1000.00000  1000.00000  1000.00000    90.00000    90.00000    90.00000  Step:          60  Bead:       0 positions{angstrom}  cell{angstrom}
       O -3.17079e+00  1.07260e+00  3.73544e-01
       H -2.61362e+00  2.61475e-01  5.43432e-01
       H -2.53504e+00  1.83339e+00  4.86118e-01
       H -3.90608e+00  9.49889e-01 -2.73315e-01
4
# CELL(abcABC): 1000.00000  1000.00000  1000.00000    90.00000    90.00000    90.00000  Step:          61  Bead:       0 positions{angstrom}  cell{angstrom}
       O -3.16967e+00  1.07260e+00  3.73805e-01
       H -2.61655e+00  2.57029e-01  5.39063e-01
       H -2.53332e+00  1.83391e+00  4.81240e-01
       H -3.92259e+00  9.53726e-01 -2.68227e-01
4
# CELL(abcABC): 1000.00000  1000.00000  1000.00000    90.00000    90.00000    90.00000  Step:          62  Bead:       0 positions{angstrom}  cell{angstrom}
       O -3.16823e+00  1.07258e+00  3.74094e-01
       H -2.62225e+00  2.54713e-01  5.34645e-01
       H -2.53555e+00  1.83208e+00  4.76041e-01
       H -3.93761e+00  9.58297e-01 -2.63182e-01
4
# CELL(abcABC): 1000.00000  1000.00000  1000.00000    90.00000    90.00000    90.00000  Step:          63  Bead:       0 positions{angstrom}  cell{angstrom}
       O -3.16653e+00  1.07232e+00  3.74099e-01
       H -2.62936e+00  2.56214e-01  5.31167e-01
       H -2.54053e+00  1.82779e+00  4.70926e-01
       H -3.95249e+00  9.65092e-01 -2.54677e-01
4
# CELL(abcABC): 1000.00000  1000.00000  1000.00000    90.00000    90.00000    90.00000  Step:          64  Bead:       0 positions{angstrom}  cell{angstrom}
       O -3.16475e+00  1.07194e+00  3.73910e-01
       H -2.63651e+00  2.60394e-01  5.29261e-01
       H -2.54702e+00  1.82207e+00  4.66200e-01
       H -3.96714e+00  9.72686e-01 -2.45050e-01
4
# CELL(abcABC): 1000.00000  1000.00000  1000.00000    90.00000    90.00000    90.00000  Step:          65  Bead:       0 positions{angstrom}  cell{angstrom}
       O -3.16295e+00  1.07138e+00  3.73566e-01
       H -2.64516e+00  2.66903e-01  5.26981e-01
       H -2.55395e+00  1.81717e+00  4.61795e-01
       H -3.98012e+00  9.80098e-01 -2.32901e-01
4
# CELL(abcABC): 1000.00000  1000.00000  1000.00000    90.00000    90.00000    90.00000  Step:          66  Bead:       0 positions{angstrom}  cell{angstrom}
       O -3.16125e+00  1.07060e+00  3.72928e-01
       H -2.65390e+00  2.76688e-01  5.26276e-01
       H -2.56108e+00  1.81116e+00  4.58302e-01
       H -3.99122e+00  9.88667e-01 -2.18572e-01
4
# CELL(abcABC): 1000.00000  1000.00000  1000.00000    90.00000    90.00000    90.00000  Step:          67  Bead:       0 positions{angstrom}  cell{angstrom}
       O -3.15968e+00  1.06982e+00  3.72061e-01
       H -2.66143e+00  2.84915e-01  5.25886e-01
       H -2.56719e+00  1.80660e+00  4.56040e-01
       H -4.00247e+00  9.97298e-01 -2.02166e-01
4
# CELL(abcABC): 1000.00000  1000.00000  1000.00000    90.00000    90.00000    90.00000  Step:          68  Bead:       0 positions{angstrom}  cell{angstrom}
       O -3.15844e+00  1.06898e+00  3.71101e-01
       H -2.66651e+00  2.90751e-01  5.26528e-01
       H -2.57176e+00  1.80431e+00  4.52983e-01
       H -4.01256e+00  1.00720e+00 -1.84501e-01
4
# CELL(abcABC): 1000.00000  1000.00000  1000.00000    90.00000    90.00000    90.00000  Step:          69  Bead:       0 positions{angstrom}  cell{angstrom}
       O -3.15749e+00  1.06826e+00  3.69716e-01
       H -2.66950e+00  2.91763e-01  5.30266e-01
       H -2.57532e+00  1.80484e+00  4.51644e-01
       H -4.02101e+00  1.01699e+00 -1.64928e-01
4
# CELL(abcABC): 1000.00000  1000.00000  1000.00000    90.00000    90.00000    90.00000  Step:          70  Bead:       0 positions{angstrom}  cell{angstrom}
       O -3.15708e+00  1.06745e+00  3.68102e-01
       H -2.66944e+00  2.89620e-01  5.34559e-01
       H -2.57679e+00  1.80909e+00  4.50826e-01
       H -4.02614e+00  1.02778e+00 -1.42779e-01
4
# CELL(abcABC): 1000.00000  1000.00000  1000.00000    90.00000    90.00000    90.00000  Step:          71  Bead:       0 positions{angstrom}  cell{angstrom}
       O -3.15696e+00  1.06676e+00  3.66349e-01
       H -2.66760e+00  2.82794e-01  5.38827e-01
       H -2.57702e+00  1.81542e+00  4.50294e-01
       H -4.02963e+00  1.03915e+00 -1.18692e-01
4
# CELL(abcABC): 1000.00000  1000.00000  1000.00000    90.00000    90.00000    90.00000  Step:          72  Bead:       0 positions{angstrom}  cell{angstrom}
       O -3.15714e+00  1.06602e+00  3.64380e-01
       H -2.66349e+00  2.73485e-01  5.44481e-01
       H -2.57581e+00  1.82386e+00  4.51155e-01
       H -4.03209e+00  1.05183e+00 -9.39493e-02
4
# CELL(abcABC): 1000.00000  1000.00000  1000.00000    90.00000    90.00000    90.00000  Step:          73  Bead:       0 positions{angstrom}  cell{angstrom}
       O -3.15743e+00  1.06533e+00  3.62363e-01
       H -2.65841e+00  2.62508e-01  5.50747e-01
       H -2.57403e+00  1.83367e+00  4.52584e-01
       H -4.03446e+00  1.06391e+00 -6.96172e-02
4
# CELL(abcABC): 1000.00000  1000.00000  1000.00000    90.00000    90.00000    90.00000  Step:          74  Bead:       0 positions{angstrom}  cell{angstrom}
       O -3.15776e+00  1.06459e+00  3.60438e-01
       H -2.65280e+00  2.51479e-01  5.56089e-01
       H -2.57241e+00  1.84344e+00  4.53266e-01
       H -4.03644e+00  1.07689e+00 -4.50944e-02
4
# CELL(abcABC): 1000.00000  1000.00000  1000.00000    90.00000    90.00000    90.00000  Step:          75  Bead:       0 positions{angstrom}  cell{angstrom}
       O -3.15782e+00  1.06389e+00  3.58501e-01
       H -2.64825e+00  2.40605e-01  5.60887e-01
       H -2.57224e+00  1.85153e+00  4.55000e-01
       H -4.04015e+00  1.09088e+00 -2.08742e-02
4
# CELL(abcABC): 1000.00000  1000.00000  1000.00000    90.00000    90.00000    90.00000  Step:          76  Bead:       0 positions{angstrom}  cell{angstrom}
       O -3.15776e+00  1.06303e+00  3.56465e-01
       H -2.64412e+00  2.32209e-01  5.66465e-01
       H -2.57353e+00  1.85784e+00  4.57029e-01
       H -4.04396e+00  1.10654e+00  3.83539e-03
4
# CELL(abcABC): 1000.00000  1000.00000  1000.00000    90.00000    90.00000    90.00000  Step:          77  Bead:       0 positions{angstrom}  cell{angstrom}
       O -3.15733e+00  1.06211e+00  3.54447e-01
       H -2.64183e+00  2.27759e-01  5.71507e-01
       H -2.57691e+00  1.86203e+00  4.59801e-01
       H -4.04962e+00  1.12140e+00  2.80554e-02
4
# CELL(abcABC): 1000.00000  1000.00000  1000.00000    90.00000    90.00000    90.00000  Step:          78  Bead:       0 positions{angstrom}  cell{angstrom}
       O -3.15654e+00  1.06117e+00  3.52666e-01
       H -2.64274e+00  2.26065e-01  5.74914e-01
       H -2.58113e+00  1.86415e+00  4.62397e-01
       H -4.05714e+00  1.13593e+00  5.03241e-02
4
# CELL(abcABC): 1000.00000  1000.00000  1000.00000    90.00000    90.00000    90.00000  Step:          79  Bead:       0 positions{angstrom}  cell{angstrom}
       O -3.15549e+00  1.06031e+00  3.50934e-01
       H -2.64636e+00  2.28363e-01  5.78826e-01
       H -2.58554e+00  1.86257e+00  4.64824e-01
       H -4.06566e+00  1.14884e+00  7.14727e-02
4
# CELL(abcABC): 1000.00000  1000.00000  1000.00000    90.00000    90.00000    90.00000  Step:          80  Bead:       0 positions{angstrom}  cell{angstrom}
       O -3.15428e+00  1.05948e+00  3.49174e-01
       H -2.65146e+00  2.34091e-01  5.82023e-01
       H -2.59063e+00  1.85807e+00  4.68322e-01
       H -4.07467e+00  1.16088e+00  9.27237e-02
4
# CELL(abcABC): 1000.00000  1000.00000  1000.00000    90.00000    90.00000    90.00000  Step:          81  Bead:       0 positions{angstrom}  cell{angstrom}
       O -3.15295e+00  1.05853e+00  3.47542e-01
       H -2.65596e+00  2.43193e-01  5.84001e-01
       H -2.59687e+00  1.85324e+00  4.72055e-01
       H -4.08510e+00  1.17161e+00  1.12908e-01
4
# CELL(abcABC): 1000.00000  1000.00000  1000.00000    90.00000    90.00000    90.00000  Step:          82  Bead:       0 positions{angstrom}  cell{angstrom}
       O -3.15152e+00  1.05778e+00  3.45862e-01
       H -2.66070e+00  2.53264e-01  5.86364e-01
       H -2.60279e+00  1.84563e+00  4.75805e-01
       H -4.09716e+00  1.18108e+00  1.33464e-01
4
# CELL(abcABC): 1000.00000  1000.00000  1000.00000    90.00000    90.00000    90.00000  Step:          83  Bead:       0 positions{angstrom}  cell{angstrom}
       O -3.15013e+00  1.05704e+00  3.44205e-01
       H -2.66569e+00  2.64202e-01  5.89042e-01
       H -2.60813e+00  1.83774e+00  4.79699e-01
       H -4.10880e+00  1.18976e+00  1.53198e-01
4
# CELL(abcABC): 1000.00000  1000.00000  1000.00000    90.00000    90.00000    90.00000  Step:          84  Bead:       0 positions{angstrom}  cell{angstrom}
       O -3.14885e+00  1.05641e+00  3.42575e-01
       H -2.66920e+00  2.73573e-01  5.90906e-01
       H -2.61327e+00  1.83032e+00  4.83676e-01
       H -4.12049e+00  1.19785e+00  1.73227e-01
4
# CELL(abcABC): 1000.00000  1000.00000  1000.00000    90.00000    90.00000    90.00000  Step:          85  Bead:       0 positions{angstrom}  cell{angstrom}