6
# CELL(abcABC): 1000.00000  1000.00000  1000.00000    90.00000    90.00000    90.00000  Step:         457  Bead:       0 positions{angstrom}  cell{angstrom}
       C -9.48591e-01  2.29664e+00 -1.94899e-01
       H -7.03449e-01  2.28013e+00 -1.20470e+00
       H -1.03566e-01  1.99179e+00  3.75113e-01
       H -1.74917e+00  1.56147e+00  8.71119e-03
       O -1.28605e+00  3.64359e+00  1.77989e-01
       H -2.23648e+00  3.80454e+00  4.32554e-03
