6
# CELL(abcABC): 1000.00000  1000.00000  1000.00000    90.00000    90.00000    90.00000  Step:         459  Bead:       0 positions{angstrom}  cell{angstrom}
       C -6.98078e-01  3.08174e+00 -5.40210e-01
       H -1.14505e+00  3.63536e+00 -1.30737e+00
       H  1.34051e-01  3.67054e+00 -1.96524e-01
       H -3.19853e-01  2.15345e+00 -9.19512e-01
       O -1.55448e+00  2.88919e+00  4.53045e-01
       H -2.18590e+00  2.79814e+00  1.35556e+00
