11115
# CELL(abcABC):   47.66706    47.66706    47.66706    90.00000    90.00000    90.00000  Step:       10000  Bead:       0 positions{angstrom}  cell{angstrom}
       C  1.54187e+00  1.51363e-01  6.20599e+00
       H  2.21289e+00  1.00633e+00  5.82680e+00
       H  1.31502e+00  1.52175e-01  7.30574e+00
       H  5.27756e-01  3.53947e-01  5.67678e+00
       C  2.10190e+00 -1.10664e+00  5.67658e+00
       O  1.37232e+00 -2.03971e+00  5.62670e+00
       N  3.38594e+00 -1.08805e+00  5.29543e+00
       H  3.90925e+00 -2.35050e-01  5.31841e+00
       C  4.13550e+00 -2.24046e+00  4.66413e+00
       H  3.36025e+00 -2.75914e+00  4.15176e+00
       C  5.07249e+00 -1.74359e+00  3.61103e+00
       H  5.85161e+00 -1.13301e+00  4.03323e+00
       H  4.52182e+00 -1.06399e+00  2.97999e+00
       C  5.71244e+00 -2.73007e+00  2.66112e+00
       O  6.59471e+00 -2.32616e+00  1.86191e+00
       O  5.42139e+00 -3.99608e+00  2.72110e+00
       H  5.77714e+00 -4.44627e+00  1.82710e+00
       C  4.90023e+00 -3.17310e+00  5.67546e+00
       O  6.07942e+00 -3.38178e+00  5.57820e+00
       N  4.18384e+00 -3.63342e+00  6.71830e+00
       H  4.58665e+00 -4.24527e+00  7.41000e+00
       H  3.22216e+00 -3.40579e+00  6.67975e+00
       O -2.20934e+01 -1.94607e+01 -3.23307e+00
       H -2.20512e+01 -1.85522e+01 -3.59689e+00
       H -2.21739e+01 -1.99526e+01 -4.04626e+00
       O -2.60410e+01 -1.32912e+01 -3.09209e+01
       H -2.69779e+01 -1.29983e+01 -3.06579e+01
       H -2.58453e+01 -1.29604e+01 -3.18260e+01
       O -2.08424e+01 -9.97154e+00  6.63527e-01
       H -2.11239e+01 -1.05806e+01  1.32747e+00
       H -2.05503e+01 -1.06749e+01  3.26175e-02
       O -1.47344e+01 -2.87735e+01 -1.07917e+01
       H -1.52741e+01 -2.94505e+01 -1.02929e+01
       H -1.49525e+01 -2.79983e+01 -1.02932e+01
       O -2.17235e+01 -1.20486e+01 -9.37617e+00
       H -2.17077e+01 -1.14740e+01 -8.62124e+00
       H -2.08959e+01 -1.24320e+01 -9.19818e+00
       O -1.95638e+01 -2.35892e+01 -1.68254e+01
       H -2.01639e+01 -2.42756e+01 -1.72413e+01
       H -1.92001e+01 -2.39606e+01 -1.60164e+01
       O -2.38550e+01 -2.30706e+01 -1.72257e+01
       H -2.30334e+01 -2.25723e+01 -1.70525e+01
       H -2.42021e+01 -2.26097e+01 -1.80391e+01
       O -2.25338e+01 -1.89072e+01 -1.41951e+01
       H -2.20884e+01 -1.89537e+01 -1.33104e+01
       H -2.27203e+01 -1.79772e+01 -1.42411e+01
       O -1.30233e+01 -2.71890e+01 -2.25492e+01
       H -1.33269e+01 -2.64564e+01 -2.19913e+01
       H -1.39023e+01 -2.74551e+01 -2.28599e+01
       O -6.55288e+00 -2.83567e+01 -9.03178e+00
       H -7.01564e+00 -2.75860e+01 -9.47324e+00
       H -5.65386e+00 -2.79786e+01 -8.94519e+00
       O -1.40692e+01 -1.42602e+01 -2.37727e+01
       H -1.36512e+01 -1.33892e+01 -2.41251e+01
       H -1.43178e+01 -1.47182e+01 -2.45930e+01
       O -3.90974e+00  4.58953e+00 -3.45114e+00
       H -3.25844e+00  5.21441e+00 -3.88476e+00
       H -4.57591e+00  5.15506e+00 -3.26172e+00
       O -1.01557e+01 -2.00637e+01 -1.89074e+01
       H -1.05254e+01 -2.08209e+01 -1.93923e+01
       H -1.05685e+01 -2.02172e+01 -1.80258e+01
       O -1.97516e+01 -5.51223e+00 -9.14879e+00
       H -1.95420e+01 -6.38700e+00 -9.52675e+00
       H -1.96892e+01 -4.91128e+00 -9.90940e+00
       O -2.05738e+01 -3.11316e+01 -2.71765e+01
       H -2.13709e+01 -3.13300e+01 -2.66438e+01
       H -2.04373e+01 -3.19539e+01 -2.76785e+01
       O -3.81191e+00 -2.64238e+01 -1.96819e+01
       H -3.53498e+00 -2.57950e+01 -2.03720e+01
       H -3.16127e+00 -2.71821e+01 -1.97084e+01
       O -2.62515e+01 -2.81122e+01  4.34008e-01
       H -2.62002e+01 -2.87916e+01  1.16839e+00
       H -2.61198e+01 -2.86563e+01 -3.58899e-01
       O -1.10143e+01 -1.16284e+01 -2.13221e+01
       H -1.03217e+01 -1.09090e+01 -2.12532e+01
       H -1.16048e+01 -1.11607e+01 -2.19738e+01
       O -1.99127e+01 -1.51022e+01  3.31395e-02
       H -1.93204e+01 -1.58899e+01  9.21356e-02
       H -2.07065e+01 -1.55120e+01 -3.93270e-01
       O -1.75950e+01 -2.35562e+00 -3.35104e+01
       H -1.68467e+01 -1.79403e+00 -3.33148e+01
       H -1.75371e+01 -2.36348e+00 -3.44826e+01
       O -1.50785e+01 -3.15806e+01 -7.63904e+00
       H -1.51424e+01 -3.22708e+01 -6.89498e+00
       H -1.41980e+01 -3.17588e+01 -8.01507e+00
       O -3.55633e+01 -1.07283e+01 -2.51342e+01
       H -3.56295e+01 -1.04779e+01 -2.42057e+01
       H -3.48930e+01 -1.00136e+01 -2.53540e+01
       O -4.96486e+00 -7.14267e+00 -2.11620e+01
       H -5.30751e+00 -7.45575e+00 -2.20165e+01
       H -5.54582e+00 -6.46785e+00 -2.08907e+01
       O -2.70121e+01 -9.03604e+00 -1.19706e+01
       H -2.70176e+01 -8.44056e+00 -1.11889e+01
       H -2.62349e+01 -9.53678e+00 -1.17029e+01
       O -1.44199e+01 -3.32229e+01 -2.84498e+01
       H -1.45182e+01 -3.25935e+01 -2.76557e+01
       H -1.34994e+01 -3.31915e+01 -2.87414e+01
       O -1.76070e+01 -1.16963e+01 -1.80413e+01
       H -1.71368e+01 -1.20034e+01 -1.88496e+01
       H -1.77122e+01 -1.07250e+01 -1.82301e+01
       O -1.35946e+00  1.30264e+01 -6.14578e+00
       H -2.09493e+00  1.26977e+01 -6.74959e+00
       H -1.56976e+00  1.40244e+01 -6.13969e+00
       O -1.71965e+01  2.63823e+00 -3.03012e+00
       H -1.80611e+01  2.48930e+00 -3.42781e+00
       H -1.68086e+01  3.27753e+00 -3.57668e+00
       O -1.60741e+01 -1.08145e+01 -1.11979e+01
       H -1.58844e+01 -1.13789e+01 -1.04217e+01
       H -1.54038e+01 -1.01012e+01 -1.09370e+01
       O -1.08120e+01 -1.91861e+01 -8.96469e+00
       H -1.00196e+01 -1.87929e+01 -9.37013e+00
       H -1.12480e+01 -1.96269e+01 -9.72528e+00
       O  8.32834e+00  5.05175e+00 -3.72172e+01
       H  9.25707e+00  5.04820e+00 -3.68066e+01
       H  8.19093e+00  4.13439e+00 -3.74921e+01
       O -2.06231e+00 -2.80752e+01 -1.31613e+01
       H -1.47077e+00 -2.76229e+01 -1.37620e+01
       H -2.90290e+00 -2.77307e+01 -1.33693e+01
       O  3.18207e+00 -3.40684e+00 -9.34968e+00
       H  2.99244e+00 -3.61446e+00 -1.02743e+01
       H  3.45279e+00 -2.44661e+00 -9.41828e+00
       O -2.80407e+01 -1.57382e+01 -6.14512e+00
       H -2.78393e+01 -1.65185e+01 -5.56875e+00
       H -2.71425e+01 -1.53197e+01 -6.18735e+00
       O -1.14720e+01 -1.95331e+01 -1.62578e+01
       H -1.21846e+01 -1.90913e+01 -1.58009e+01
       H -1.06704e+01 -1.91304e+01 -1.58029e+01
       O -1.52942e+01 -1.88961e+01 -2.66391e+01
       H -1.50864e+01 -1.80353e+01 -2.62343e+01
       H -1.53140e+01 -1.88354e+01 -2.76201e+01
       O -1.40913e+01 -1.31843e+01  2.75371e+00
       H -1.46128e+01 -1.32895e+01  3.59293e+00
       H -1.45387e+01 -1.26073e+01  2.11829e+00
       O -1.72057e+01 -3.55276e+01 -1.26561e+01
       H -1.75288e+01 -3.53336e+01 -1.35441e+01
       H -1.78884e+01 -3.51409e+01 -1.20477e+01
       O -6.62334e+00 -4.77294e+00  8.01030e+00
       H -6.72367e+00 -5.28859e+00  8.81699e+00
       H -7.37493e+00 -4.20470e+00  8.06678e+00
       O  2.01414e+00 -1.46102e+01 -3.31655e+01
       H  2.39211e+00 -1.54332e+01 -3.35642e+01
       H  1.77127e+00 -1.41371e+01 -3.39305e+01
       O -1.56348e+00 -2.80096e+01 -1.99339e+01
       H -1.14820e+00 -2.83939e+01 -1.90727e+01
       H -7.98491e-01 -2.75692e+01 -2.03290e+01
       O -2.52667e+01 -1.38259e+01 -1.02625e+01
       H -2.50287e+01 -1.34396e+01 -1.11518e+01
       H -2.62530e+01 -1.38981e+01 -1.02608e+01
       O -6.14827e+00 -9.39402e+00 -1.52606e+01
       H -6.74114e+00 -9.72654e+00 -1.58791e+01
       H -6.33377e+00 -9.95029e+00 -1.44615e+01
       O -2.27601e+01 -5.49989e+01 -2.17091e+01
       H -2.22534e+01 -5.58409e+01 -2.18761e+01
       H -2.33056e+01 -5.48023e+01 -2.25294e+01
       O -1.54310e+01 -1.43254e+01 -4.26908e+01
       H -1.55431e+01 -1.53136e+01 -4.26893e+01
       H -1.63727e+01 -1.40399e+01 -4.26005e+01
       O -1.02228e+01 -6.16716e+00 -3.30762e+01
       H -1.00791e+01 -5.76456e+00 -3.22055e+01
       H -9.77389e+00 -5.59375e+00 -3.36789e+01
       O -3.03025e+01 -2.13736e+01 -8.52704e+00
       H -3.04484e+01 -2.12848e+01 -7.55328e+00
       H -3.11596e+01 -2.11494e+01 -8.82830e+00
       O -1.46648e+01 -7.73388e+00 -1.21451e+01
       H -1.46996e+01 -7.22125e+00 -1.13103e+01
       H -1.40394e+01 -8.48993e+00 -1.18888e+01
       O -1.64649e+01 -2.04081e+01 -1.80645e+01
       H -1.55887e+01 -2.07953e+01 -1.80937e+01
       H -1.62549e+01 -1.94555e+01 -1.78542e+01
       O -2.68022e+00 -3.22503e+00  3.36444e+00
       H -2.26637e+00 -2.74016e+00  4.12861e+00
       H -2.27266e+00 -2.57766e+00  2.70949e+00
       O -3.13986e+00  2.03710e+00  4.91486e+00
       H -3.94942e+00  2.57918e+00  5.22698e+00
       H -2.63019e+00  1.91802e+00  5.72673e+00
       O -1.70547e+00 -4.61544e+00 -4.59818e+00
       H -1.21361e+00 -4.21206e+00 -5.27250e+00
       H -1.29676e+00 -4.43221e+00 -3.75037e+00
       O -1.13173e+01 -6.83032e+00 -9.99790e+00
       H -1.09044e+01 -7.21868e+00 -1.07982e+01
       H -1.06706e+01 -6.11555e+00 -9.74734e+00
       O -1.26832e+01  1.69968e+00 -8.50183e+00
       H -1.27519e+01  1.29711e+00 -7.62558e+00
       H -1.34653e+01  1.28174e+00 -8.89358e+00
       O -1.04853e+01 -2.01228e+01 -6.35446e+00
       H -9.69672e+00 -2.05743e+01 -6.23455e+00
       H -1.04632e+01 -1.98929e+01 -7.25200e+00
       O -1.39838e+01 -2.76359e+01 -3.13723e+01
       H -1.35630e+01 -2.82604e+01 -3.07607e+01
       H -1.48761e+01 -2.80701e+01 -3.15311e+01
       O -1.87970e+01 -2.81280e+01 -1.16242e+01
       H -1.83347e+01 -2.75250e+01 -1.22013e+01
       H -1.96849e+01 -2.78710e+01 -1.18502e+01
       O -1.84891e+01 -3.34161e+01 -8.21013e+00
       H -1.80054e+01 -3.41963e+01 -7.83850e+00
       H -1.78720e+01 -3.31255e+01 -8.93578e+00
       O  1.47472e+00  4.46935e+00 -5.15694e+00
       H  1.63215e+00  3.69122e+00 -4.56174e+00
       H  1.13376e+00  5.09314e+00 -4.48662e+00
       O -1.13451e+01 -3.02195e+01 -2.21281e+01
       H -1.21061e+01 -2.98944e+01 -2.17326e+01
       H -1.10909e+01 -3.08463e+01 -2.14059e+01
       O -2.38035e+00 -3.99412e+00 -2.74376e+01
       H -1.46750e+00 -4.00338e+00 -2.70985e+01
       H -2.28235e+00 -4.50633e+00 -2.82318e+01
       O -2.84683e+01 -1.94482e+01 -6.94402e+00
       H -2.86489e+01 -1.87637e+01 -6.30304e+00
       H -2.92717e+01 -2.00066e+01 -6.87763e+00
       O -1.30414e+01 -4.44652e+01 -2.54287e+01
       H -1.30908e+01 -4.53911e+01 -2.51652e+01
       H -1.20625e+01 -4.44698e+01 -2.55835e+01
       O -5.86055e+00 -2.49899e+01 -1.18508e+01
       H -6.60013e+00 -2.54814e+01 -1.15170e+01
       H -5.13558e+00 -2.56145e+01 -1.18191e+01
       O -6.93726e+00 -1.88392e+01 -1.95356e+01
       H -6.43578e+00 -1.93332e+01 -2.01733e+01
       H -6.94883e+00 -1.94219e+01 -1.86925e+01
       O -1.89894e+01 -3.21362e+01 -5.64300e+00
       H -1.87919e+01 -3.27759e+01 -6.33478e+00
       H -1.99426e+01 -3.23108e+01 -5.31539e+00
       O -3.40177e+01 -8.44713e+00 -1.21871e+01
       H -3.36124e+01 -7.79814e+00 -1.27628e+01
       H -3.33663e+01 -9.14486e+00 -1.22987e+01
       O -2.43212e+01 -2.25343e+01 -2.60750e+01
       H -2.42571e+01 -2.34755e+01 -2.57198e+01
       H -2.50728e+01 -2.22488e+01 -2.56327e+01
       O -2.14501e+01 -4.28436e+00 -2.21326e+01
       H -2.24471e+01 -4.14020e+00 -2.20761e+01
       H -2.11420e+01 -3.40552e+00 -2.20705e+01
       O -2.35483e+01 -1.54948e+01 -1.80530e+01
       H -2.43619e+01 -1.56086e+01 -1.76442e+01
       H -2.30155e+01 -1.51881e+01 -1.73146e+01
       O -2.26549e+01 -2.21522e+01  1.10601e+00
       H -2.29858e+01 -2.13913e+01  6.21599e-01
       H -2.30978e+01 -2.21095e+01  1.89298e+00
       O  5.39723e-01 -1.55751e+01 -1.17316e+01
       H  1.24783e+00 -1.61467e+01 -1.20715e+01
       H  4.63657e-01 -1.58508e+01 -1.07976e+01
       O -1.93226e+01 -2.50976e+01 -2.75189e+01
       H -1.89064e+01 -2.49105e+01 -2.83622e+01
       H -1.99956e+01 -2.43882e+01 -2.74422e+01
       O -1.62058e+01 -2.21996e+01 -2.71358e+01
       H -1.71771e+01 -2.21504e+01 -2.72533e+01
       H -1.59051e+01 -2.21308e+01 -2.80474e+01
       O -2.87120e+01 -2.98362e+01 -5.29761e-01
       H -2.89750e+01 -2.92752e+01  2.56585e-01
       H -2.83421e+01 -3.05494e+01 -1.72293e-02
       O -2.73087e+01 -2.67965e+01 -3.25681e+01
       H -2.75424e+01 -2.70895e+01 -3.16749e+01
       H -2.66432e+01 -2.74943e+01 -3.28383e+01
       O -1.72741e+00 -1.35541e+01  1.09571e+01
       H -1.80206e+00 -1.31024e+01  1.18472e+01
       H -1.09206e+00 -1.42558e+01  1.11552e+01
       O -3.72824e+01 -9.13611e+00 -3.85674e+00
       H -3.66332e+01 -9.30300e+00 -3.18425e+00
       H -3.67411e+01 -9.40040e+00 -4.62513e+00
       O -1.73256e+01 -2.12698e+01 -3.01829e+00
       H -1.80812e+01 -2.18655e+01 -3.24108e+00
       H -1.71650e+01 -2.15783e+01 -2.14043e+00
       O -2.09106e+01 -2.30265e+01 -2.65714e+01
       H -2.15050e+01 -2.29061e+01 -2.73064e+01
       H -2.01313e+01 -2.25417e+01 -2.69004e+01
       O -8.68709e+00 -2.20994e+01 -1.05527e+01
       H -8.59129e+00 -2.12232e+01 -1.10118e+01
       H -7.74215e+00 -2.22336e+01 -1.04085e+01
       O -1.36680e+01 -1.79166e+01 -1.32634e+01
       H -1.42691e+01 -1.82548e+01 -1.39105e+01
       H -1.42884e+01 -1.73111e+01 -1.27224e+01
       O -2.22754e+01  9.77860e+00 -1.08973e+01
       H -2.14898e+01  1.03059e+01 -1.09695e+01
       H -2.20397e+01  9.25349e+00 -1.00649e+01
       O -1.01437e+01 -2.90062e+01 -1.92129e+01
       H -9.59439e+00 -2.89886e+01 -1.84165e+01
       H -9.87502e+00 -2.98690e+01 -1.94741e+01
       O -1.09992e+01 -2.27589e+01 -3.37703e+01
       H -1.12763e+01 -2.30215e+01 -3.46589e+01
       H -1.18067e+01 -2.31683e+01 -3.33437e+01
       O -7.02904e+00 -2.64618e+01 -1.47893e+01
       H -6.23880e+00 -2.63002e+01 -1.43625e+01
       H -6.99492e+00 -2.74210e+01 -1.46764e+01
       O -1.13085e+01  2.90051e+00 -1.37241e+01
       H -1.16477e+01  3.79964e+00 -1.34199e+01
       H -1.19686e+01  2.36796e+00 -1.32017e+01
       O -1.81452e+01 -2.38204e+01 -3.36379e+01
       H -1.76645e+01 -2.30850e+01 -3.41451e+01
       H -1.76773e+01 -2.38281e+01 -3.27354e+01
       O -4.21274e+01 -2.81695e+01 -1.24454e+01
       H -4.25755e+01 -2.88043e+01 -1.30511e+01
       H -4.28588e+01 -2.81109e+01 -1.18254e+01
       O -1.83081e+01 -2.23553e+01  7.55798e+00
       H -1.91111e+01 -2.26720e+01  8.04281e+00
       H -1.82105e+01 -2.15114e+01  7.97396e+00
       O -7.11921e+00 -1.20202e+01 -2.06169e+00
       H -7.58327e+00 -1.17006e+01 -1.24793e+00
       H -7.36670e+00 -1.29306e+01 -1.99688e+00
       O -1.14121e+01 -1.96361e+01 -1.27559e+01
       H -1.19705e+01 -2.03283e+01 -1.22538e+01
       H -1.20586e+01 -1.89057e+01 -1.28135e+01
       O  7.42688e+00 -1.05714e+01  1.68751e+01
       H  6.71763e+00 -9.98674e+00  1.68142e+01
       H  7.40677e+00 -1.08394e+01  1.78255e+01
       O -8.35918e+00 -1.78057e-01 -1.12723e+01
       H -9.13131e+00 -4.53775e-01 -1.17252e+01
       H -8.71657e+00  3.92623e-01 -1.05018e+01
       O  2.68299e-02  8.69288e+00  6.99354e-01
       H -9.21783e-01  8.65685e+00  1.03261e+00
       H  1.64146e-01  7.76699e+00  4.73879e-01
       O -1.41447e+01 -9.93332e+00 -2.95437e+01
       H -1.46408e+01 -9.06856e+00 -2.95212e+01
       H -1.34898e+01 -9.78271e+00 -3.02438e+01
       O -6.21444e+00 -9.97243e+00 -2.71742e+01
       H -6.21169e+00 -1.09313e+01 -2.74320e+01
       H -6.92663e+00 -9.62088e+00 -2.77576e+01
       O -1.47496e+01 -1.17017e+01 -2.74921e+01
       H -1.44915e+01 -1.11205e+01 -2.82649e+01
       H -1.42077e+01 -1.24440e+01 -2.77349e+01
       O -1.79680e+01 -2.81316e+01 -2.89339e+01
       H -1.73683e+01 -2.73606e+01 -2.89301e+01
       H -1.87268e+01 -2.77463e+01 -2.84210e+01
       O -4.23902e+00 -3.17007e-01 -3.90399e+00
       H -3.65413e+00  3.37740e-01 -4.36218e+00
       H -4.86371e+00  1.74202e-01 -3.34968e+00
       O -1.70096e+01 -2.07296e+01 -7.20121e+00
       H -1.71557e+01 -2.16480e+01 -7.02159e+00
       H -1.65764e+01 -2.04218e+01 -6.31228e+00
       O -5.33470e+00 -3.23474e+00 -1.17430e+01
       H -4.74011e+00 -2.73960e+00 -1.11745e+01
       H -5.73577e+00 -2.58067e+00 -1.23197e+01
       O -6.35175e+00 -1.28761e+01 -7.10053e+00
       H -5.65837e+00 -1.35187e+01 -7.29603e+00
       H -6.25373e+00 -1.26179e+01 -6.18545e+00
       O  1.40923e+01  1.07303e+01 -2.76747e+01
       H  1.48585e+01  1.04979e+01 -2.81955e+01
       H  1.35130e+01  9.94426e+00 -2.77212e+01
       O -2.44532e+01 -1.82531e+01 -8.41332e+00
       H -2.47743e+01 -1.90417e+01 -8.00498e+00
       H -2.51466e+01 -1.80750e+01 -9.07899e+00
       O -2.25611e+01 -3.04949e+01 -1.08862e+01
       H -2.17382e+01 -3.09885e+01 -1.05842e+01
       H -2.33154e+01 -3.11761e+01 -1.07848e+01
       O -7.68092e+00 -2.14232e+01 -7.51082e+00
       H -7.64345e+00 -2.12760e+01 -8.50689e+00
       H -7.75581e+00 -2.24186e+01 -7.51347e+00
       O -6.33018e+00 -2.53074e+01 -1.83923e+01
       H -5.57374e+00 -2.56217e+01 -1.88808e+01
       H -6.91752e+00 -2.50644e+01 -1.91952e+01
       O -1.73316e+01 -8.87316e+00 -1.90095e+01
       H -1.76246e+01 -8.02985e+00 -1.93786e+01
       H -1.66411e+01 -8.64884e+00 -1.84110e+01
       O -2.05286e+01 -2.79616e+01 -1.95939e+01
       H -2.00143e+01 -2.84541e+01 -2.02328e+01
       H -1.98527e+01 -2.72825e+01 -1.93890e+01
       O -1.00526e+01 -7.71406e+00 -6.10671e+00
       H -9.53399e+00 -8.45253e+00 -6.03607e+00
       H -9.36674e+00 -7.12189e+00 -6.47545e+00
       O -2.04257e+01 -4.24201e+01 -4.43483e+01
       H -2.09882e+01 -4.31540e+01 -4.40124e+01
       H -1.96674e+01 -4.23116e+01 -4.37140e+01
       O -1.81391e+01 -1.77032e+01 -1.07081e+01
       H -1.86545e+01 -1.81373e+01 -1.00287e+01
       H -1.73630e+01 -1.83008e+01 -1.07152e+01
       O -1.63978e+01 -3.43624e+01 -2.65931e+01
       H -1.57862e+01 -3.36876e+01 -2.65971e+01
       H -1.72327e+01 -3.39171e+01 -2.66426e+01
       O -1.35205e+01 -1.31998e+01 -7.93365e+00
       H -1.39502e+01 -1.39752e+01 -8.39863e+00
       H -1.28302e+01 -1.36565e+01 -7.42877e+00
       O -2.48224e+01 -1.97719e+01 -2.39520e+01
       H -2.47847e+01 -1.95144e+01 -2.48940e+01
       H -2.56172e+01 -1.92948e+01 -2.36010e+01
       O -1.43311e+01 -1.40774e+01 -5.15413e+00
       H -1.52385e+01 -1.42457e+01 -5.51969e+00
       H -1.38962e+01 -1.48539e+01 -5.49894e+00
       O -7.47618e+00 -2.79504e+01 -4.23156e+01
       H -8.28092e+00 -2.74909e+01 -4.20585e+01
       H -6.99321e+00 -2.80888e+01 -4.15869e+01
       O -1.36629e+00 -1.95827e+01 -1.87015e+01
       H -1.30492e+00 -1.99768e+01 -1.78077e+01
       H -1.34472e+00 -2.03212e+01 -1.92806e+01
       O -1.57288e+01 -1.21132e+01 -1.61629e+01
       H -1.65884e+01 -1.19618e+01 -1.66296e+01
       H -1.60086e+01 -1.20249e+01 -1.52743e+01
       O -2.19997e+01 -8.97199e+00 -1.63562e+01
       H -2.20189e+01 -9.56407e+00 -1.55585e+01
       H -2.13914e+01 -9.48670e+00 -1.69921e+01
       O -4.07751e+00  8.52779e-01 -2.03747e+01
       H -3.21947e+00  5.61083e-01 -2.07888e+01
       H -4.48231e+00  1.04392e+00 -2.11897e+01
       O -1.45090e+00 -1.23397e+00  1.98689e+00
       H -9.90812e-01 -5.62278e-01  2.39400e+00
       H -8.15899e-01 -1.57419e+00  1.30313e+00
       O -1.80564e+01 -1.69401e+01  3.85418e+00
       H -1.81721e+01 -1.60342e+01  3.62252e+00
       H -1.88379e+01 -1.71462e+01  4.31138e+00
       O -1.91334e+01 -1.27673e+01 -8.96821e+00
       H -1.93984e+01 -1.32011e+01 -8.16325e+00
       H -1.81653e+01 -1.29691e+01 -9.01930e+00
       O -2.96902e+01 -1.29283e+01 -9.75474e+00
       H -2.94545e+01 -1.30616e+01 -8.82605e+00
       H -2.88479e+01 -1.25445e+01 -1.00014e+01
       O -5.79528e+00 -1.17108e+01 -4.39932e+00
       H -5.10836e+00 -1.13045e+01 -3.89736e+00
       H -6.40071e+00 -1.20199e+01 -3.69981e+00
       O -2.51864e+01 -1.91407e+01 -4.36389e+01
       H -2.45949e+01 -1.93179e+01 -4.28029e+01
       H -2.50608e+01 -1.81940e+01 -4.36446e+01
       O -1.20385e+01 -2.22592e+01 -1.20507e+01
       H -1.15630e+01 -2.27445e+01 -1.13897e+01
       H -1.14052e+01 -2.23129e+01 -1.28434e+01
       O -2.55582e+00 -1.11067e+01 -2.14368e+01
       H -2.89975e+00 -1.04419e+01 -2.08065e+01
       H -2.58984e+00 -1.06041e+01 -2.22332e+01
       O -4.79791e+01 -1.27835e+01  4.41798e+00
       H -4.71753e+01 -1.22881e+01  4.19042e+00
       H -4.82167e+01 -1.32464e+01  3.59238e+00
       O -3.95207e+00 -1.79442e+01 -8.96101e+00
       H -3.52385e+00 -1.71035e+01 -9.14033e+00
       H -3.16117e+00 -1.85195e+01 -8.71936e+00
       O -1.88682e+01 -1.40909e+01  1.72904e+01
       H -1.83670e+01 -1.37830e+01  1.80363e+01
       H -1.83537e+01 -1.37436e+01  1.66037e+01
       O -8.29923e+00 -3.29934e+01 -3.54236e+01
       H -7.37720e+00 -3.31697e+01 -3.57838e+01
       H -8.11431e+00 -3.24494e+01 -3.46186e+01
       O -1.57787e+01 -2.08793e+01 -1.08298e+01
       H -1.58523e+01 -2.00465e+01 -1.03061e+01
       H -1.64739e+01 -2.13808e+01 -1.04705e+01
       O -1.02703e+01 -1.59178e+01  1.34833e+01
       H -9.70570e+00 -1.51538e+01  1.31891e+01
       H -1.02693e+01 -1.65069e+01  1.27185e+01
       O -1.33737e+01 -8.08627e+00 -3.88697e+00
       H -1.30556e+01 -7.24551e+00 -3.45756e+00
       H -1.33384e+01 -7.94587e+00 -4.89216e+00
       O -3.06497e+01 -8.32610e+00 -1.60919e+00
       H -3.08165e+01 -7.33438e+00 -1.60017e+00
       H -3.06109e+01 -8.49530e+00 -2.55501e+00
       O -1.38104e+01 -2.41187e+01 -2.63017e+01
       H -1.45430e+01 -2.38961e+01 -2.68835e+01
       H -1.42854e+01 -2.42168e+01 -2.55038e+01
       O -1.14025e+01 -8.78636e+00  8.94891e-01
       H -1.18138e+01 -8.84916e+00  1.72538e+00
       H -1.13828e+01 -9.62155e+00  5.50831e-01
       O -1.22939e+01 -3.20935e+01 -3.25396e+00
       H -1.29908e+01 -3.23303e+01 -2.62449e+00
       H -1.24408e+01 -3.27579e+01 -3.93754e+00
       O -1.03677e+01 -3.47119e+01 -7.86314e+00
       H -9.40505e+00 -3.48704e+01 -8.21392e+00
       H -1.03765e+01 -3.52860e+01 -7.08433e+00
       O -4.62278e+00 -8.36543e+00 -1.44295e+00
       H -4.34826e+00 -9.09443e+00 -8.83171e-01
       H -3.97747e+00 -7.73067e+00 -1.14115e+00
       O -2.32836e+01 -2.73224e+01 -2.12939e+00
       H -2.31548e+01 -2.69220e+01 -3.03460e+00
       H -2.23921e+01 -2.73113e+01 -1.79708e+00
       O  3.41424e+00  1.19470e+00  2.67998e+00
       H  3.49513e+00  1.95563e+00  3.32242e+00
       H  4.00928e+00  1.40033e+00  2.00776e+00
       O -1.23221e+01 -2.67562e+01 -9.59887e+00
       H -1.27522e+01 -2.59188e+01 -9.62362e+00
       H -1.30784e+01 -2.73028e+01 -9.31796e+00
       O -1.77261e+01 -2.35278e+01 -6.53689e+00
       H -1.73213e+01 -2.36890e+01 -5.70811e+00
       H -1.71519e+01 -2.40089e+01 -7.18280e+00
       O -2.38353e+01 -2.13959e+01 -1.15109e+01
       H -2.44824e+01 -2.17695e+01 -1.20912e+01
       H -2.31466e+01 -2.08807e+01 -1.19802e+01
       O -6.80293e+00 -7.80785e+00 -3.96023e+00
       H -6.21071e+00 -7.76571e+00 -3.16028e+00
       H -7.59814e+00 -8.23534e+00 -3.59250e+00
       O -7.41863e+00 -1.49599e+01 -1.29270e+01
       H -6.74423e+00 -1.46144e+01 -1.22625e+01
       H -7.68927e+00 -1.41476e+01 -1.34340e+01
       O -1.85509e+01 -2.29029e+01 -1.00294e+01
       H -1.90959e+01 -2.29725e+01 -9.18580e+00
       H -1.90610e+01 -2.33210e+01 -1.07314e+01
       O -7.82454e-01 -1.41453e+01 -6.28351e+00
       H -6.37516e-01 -1.37407e+01 -5.33680e+00
       H -1.56099e+00 -1.37263e+01 -6.68117e+00
       O -1.12320e+01 -2.49524e+01 -1.42612e+01
       H -1.21351e+01 -2.51564e+01 -1.39953e+01
       H -1.10344e+01 -2.40598e+01 -1.39180e+01
       O -9.61016e+00 -1.32266e+01 -2.30541e+01
       H -1.00875e+01 -1.25941e+01 -2.24597e+01
       H -8.70433e+00 -1.32593e+01 -2.27078e+01
       O -2.16149e+01 -4.68757e-01 -6.11140e+00
       H -2.24895e+01 -3.67149e-01 -5.77476e+00
       H -2.14519e+01  4.62358e-01 -6.40928e+00
       O -9.41076e+00 -4.63767e+00 -9.30120e+00
       H -8.65893e+00 -5.26277e+00 -9.38706e+00
       H -9.10885e+00 -3.96719e+00 -9.97188e+00
       O -2.42279e+01  2.81883e+00 -9.37136e+00
       H -2.51580e+01  2.99609e+00 -9.48216e+00
       H -2.37660e+01  3.41136e+00 -1.00140e+01
       O -1.09237e+01  1.37570e+00 -1.66481e+01
       H -1.09074e+01  1.60562e+00 -1.56802e+01
       H -1.12564e+01  2.28601e+00 -1.69571e+01
       O -2.16988e+01 -6.54433e+00 -3.08370e+00
       H -2.22264e+01 -5.76667e+00 -2.87319e+00
       H -2.17726e+01 -6.96351e+00 -2.20623e+00
       O -1.30587e+01 -2.13438e+01 -5.54854e-01
       H -1.25734e+01 -2.17623e+01  1.62572e-01
       H -1.37427e+01 -2.09164e+01  2.57740e-03
       O  1.11610e+00  4.05723e+00  1.96073e+00
       H  1.42509e+00  4.79068e+00  2.54641e+00
       H  6.52078e-01  3.51797e+00  2.63254e+00
       O -2.58059e+01 -1.79608e+01 -5.19309e+00
       H -2.48838e+01 -1.77905e+01 -5.32151e+00
       H -2.60168e+01 -1.84591e+01 -6.03259e+00
       O -4.32632e+00 -2.15980e+01 -2.87275e+01
       H -4.43601e+00 -2.06396e+01 -2.87008e+01
       H -4.18224e+00 -2.17082e+01 -2.77969e+01
       O  2.33047e-01 -1.00068e+01 -1.42049e+01
       H  6.64213e-02 -1.00905e+01 -1.33121e+01
       H -4.54408e-01 -1.06371e+01 -1.46083e+01
       O -7.65543e+00 -1.68356e+01  2.73648e+00
       H -7.27602e+00 -1.64381e+01  3.59185e+00
       H -7.84636e+00 -1.77308e+01  2.97550e+00
       O -2.79732e+01 -1.57819e+01 -1.26526e+01
       H -2.82789e+01 -1.66021e+01 -1.30950e+01
       H -2.84214e+01 -1.57942e+01 -1.18431e+01
       O -1.26144e+01 -1.06877e+01 -2.35975e+01
       H -1.24522e+01 -9.74989e+00 -2.35802e+01
       H -1.24943e+01 -1.08640e+01 -2.45527e+01
       O -2.16506e+01 -1.54490e+01 -1.14136e+01
       H -2.22030e+01 -1.61126e+01 -1.18864e+01
       H -2.15537e+01 -1.59100e+01 -1.05474e+01
       O -1.08903e+01 -2.36857e+01 -1.66546e+01
       H -1.15379e+01 -2.30352e+01 -1.62821e+01
       H -1.09037e+01 -2.44926e+01 -1.60828e+01
       O -2.05186e+01  7.71806e+00 -1.93946e+01
       H -2.06083e+01  7.15701e+00 -1.86319e+01
       H -1.96436e+01  8.10018e+00 -1.91924e+01
       O  4.18343e+00 -1.92451e+01 -1.84598e+01
       H  4.33461e+00 -1.83923e+01 -1.80718e+01
       H  3.25713e+00 -1.92813e+01 -1.85034e+01
       O -8.77478e+00 -3.06216e+01 -9.91277e+00
       H -8.51761e+00 -3.14801e+01 -1.01448e+01
       H -7.95134e+00 -3.01155e+01 -1.00338e+01
       O -1.77617e+01 -1.29960e+01  3.98598e+00
       H -1.72878e+01 -1.23806e+01  4.52664e+00
       H -1.81666e+01 -1.23404e+01  3.34877e+00
       O -1.41733e+01 -2.38971e+01 -1.51047e+01
       H -1.38750e+01 -2.44089e+01 -1.58554e+01
       H -1.44586e+01 -2.30877e+01 -1.55574e+01
       O -6.54371e+00 -1.65278e+01 -2.34112e+01
       H -7.51404e+00 -1.63108e+01 -2.36016e+01
       H -6.37001e+00 -1.59530e+01 -2.26679e+01
       O -3.68372e+01 -2.77082e+01 -2.54828e+01
       H -3.59509e+01 -2.80997e+01 -2.53839e+01
       H -3.71283e+01 -2.81219e+01 -2.62709e+01
       O -3.69002e+01 -1.95724e+01 -1.16576e+01
       H -3.61367e+01 -1.96140e+01 -1.10759e+01
       H -3.64080e+01 -1.96148e+01 -1.25419e+01
       O -3.10323e-01 -6.03567e+00  1.57922e+00
       H  1.23814e-01 -6.83223e+00  1.45937e+00
       H -1.21312e+00 -6.36137e+00  1.77117e+00
       O -8.98643e+00 -2.18275e+01 -4.02371e+01
       H -9.04815e+00 -2.24753e+01 -4.09684e+01
       H -9.45696e+00 -2.22699e+01 -3.95713e+01
       O -9.08611e+00 -2.72884e+01 -2.63630e+01
       H -8.97072e+00 -2.82654e+01 -2.62956e+01
       H -8.18456e+00 -2.69718e+01 -2.62658e+01
       O -4.68261e+00 -1.17042e+01  4.55451e+00
       H -3.86610e+00 -1.16830e+01  3.92962e+00
       H -5.04933e+00 -1.08071e+01  4.46653e+00
       O -3.83945e+01 -7.85673e+00 -6.50379e+00
       H -3.76857e+01 -8.46294e+00 -6.25840e+00
       H -3.91066e+01 -8.51158e+00 -6.60404e+00
       O -2.39448e+01 -1.35293e+01 -4.26195e+00
       H -2.39175e+01 -1.41539e+01 -3.50861e+00
       H -2.30336e+01 -1.36498e+01 -4.56598e+00
       O -2.81168e+01  1.15771e+01 -9.71176e+00
       H -2.85705e+01  1.11766e+01 -8.92194e+00
       H -2.81215e+01  1.07023e+01 -1.01695e+01
       O  3.20976e+00 -4.67051e+00  8.81158e-01
       H  4.19531e+00 -4.82857e+00  8.78474e-01
       H  3.03704e+00 -4.64820e+00  1.82476e+00
       O -8.02883e+00 -1.49980e+00  2.20924e+00
       H -8.90903e+00 -1.37962e+00  1.82361e+00
       H -7.98712e+00 -2.41759e+00  2.54706e+00
       O -1.51895e+01 -1.60450e+01 -1.21619e+01
       H -1.53684e+01 -1.57141e+01 -1.12786e+01
       H -1.57724e+01 -1.55080e+01 -1.27052e+01
       O -4.30796e+01 -2.05591e+01  5.02459e+00
       H -4.26451e+01 -1.97172e+01  4.82658e+00
       H -4.23763e+01 -2.11669e+01  4.83770e+00
       O -2.06517e+01  4.01528e+00 -2.56728e+01
       H -2.08463e+01  3.95935e+00 -2.47486e+01
       H -2.00650e+01  4.83056e+00 -2.57566e+01
       O -1.62062e+01 -1.49601e+01 -2.22696e+01
       H -1.67991e+01 -1.53497e+01 -2.29079e+01
       H -1.54626e+01 -1.47365e+01 -2.28765e+01
       O -1.03149e+01 -1.51021e+01  3.18026e+00
       H -1.04114e+01 -1.58549e+01  3.73936e+00
       H -9.66979e+00 -1.54224e+01  2.50989e+00
       O -1.17473e+01 -8.15574e+00 -2.33837e+01
       H -1.18928e+01 -7.54492e+00 -2.26730e+01
       H -1.19550e+01 -7.62344e+00 -2.42071e+01
       O -1.34114e+01 -1.00818e+01 -1.14698e+01
       H -1.26813e+01 -1.00377e+01 -1.21425e+01
       H -1.33153e+01 -1.10764e+01 -1.12831e+01
       O -1.60922e+01 -1.52120e+01 -2.61904e-01
       H -1.66325e+01 -1.58124e+01 -7.85413e-01
       H -1.57898e+01 -1.46006e+01 -9.44447e-01
       O -2.99329e+01  6.73436e-01 -2.13949e+01
       H -3.05961e+01  5.11956e-01 -2.06916e+01
       H -2.98364e+01 -2.11990e-01 -2.17876e+01
       O -3.18566e+01 -2.52211e+01 -8.60093e+00
       H -3.13895e+01 -2.50555e+01 -7.75889e+00
       H -3.17487e+01 -2.61900e+01 -8.62562e+00
       O -1.63411e+01 -2.66757e+01 -1.32756e+01
       H -1.54604e+01 -2.62211e+01 -1.33057e+01
       H -1.62686e+01 -2.70268e+01 -1.41882e+01
       O -8.61115e+00 -1.88550e+01 -3.48996e+01
       H -8.26449e+00 -1.83545e+01 -3.40664e+01
       H -8.95812e+00 -1.81279e+01 -3.54996e+01
       O -1.48822e+01 -1.53602e+01 -9.15182e+00
       H -1.42279e+01 -1.60321e+01 -9.43552e+00
       H -1.53303e+01 -1.59867e+01 -8.53143e+00
       O -1.96017e+01 -2.35910e+01 -3.01499e+01
       H -2.03865e+01 -2.40973e+01 -3.03740e+01