4
# CELL(abcABC): 1000.00000  1000.00000  1000.00000    90.00000    90.00000    90.00000  Step:           0  Bead:       0 positions{angstrom}  cell{angstrom}
       O -3.16396e+00  1.08201e+00  3.59118e-01
       H -3.30833e+00  4.42802e-01  1.09513e+00
       H -2.32411e+00  1.51843e+00  3.90872e-01
       H -3.53078e+00  9.34383e-01 -5.00768e-01
4
# CELL(abcABC): 1000.00000  1000.00000  1000.00000    90.00000    90.00000    90.00000  Step:           1  Bead:       0 positions{angstrom}  cell{angstrom}
       O -3.16234e+00  1.08225e+00  3.58697e-01
       H -3.31810e+00  4.36087e-01  1.09866e+00
       H -2.32227e+00  1.51859e+00  3.92005e-01
       H -3.54863e+00  9.37177e-01 -4.98750e-01
4
# CELL(abcABC): 1000.00000  1000.00000  1000.00000    90.00000    90.00000    90.00000  Step:           2  Bead:       0 positions{angstrom}  cell{angstrom}
       O -3.16094e+00  1.08231e+00  3.58529e-01
       H -3.32796e+00  4.31255e-01  1.10063e+00
       H -2.31556e+00  1.52035e+00  3.93089e-01
       H -3.56766e+00  9.39265e-01 -4.99145e-01
4
# CELL(abcABC): 1000.00000  1000.00000  1000.00000    90.00000    90.00000    90.00000  Step:           3  Bead:       0 positions{angstrom}  cell{angstrom}
       O -3.15964e+00  1.08223e+00  3.58528e-01
       H -3.33698e+00  4.27392e-01  1.10196e+00
       H -2.30659e+00  1.52448e+00  3.94765e-01
       H -3.58829e+00  9.40201e-01 -5.02131e-01
4
# CELL(abcABC): 1000.00000  1000.00000  1000.00000    90.00000    90.00000    90.00000  Step:           4  Bead:       0 positions{angstrom}  cell{angstrom}
       O -3.15847e+00  1.08204e+00  3.58810e-01
       H -3.34572e+00  4.24794e-01  1.09954e+00
       H -2.29555e+00  1.53006e+00  3.95954e-01
       H -3.60911e+00  9.40340e-01 -5.05376e-01
4
# CELL(abcABC): 1000.00000  1000.00000  1000.00000    90.00000    90.00000    90.00000  Step:           5  Bead:       0 positions{angstrom}  cell{angstrom}
       O -3.15728e+00  1.08158e+00  3.59279e-01
       H -3.35457e+00  4.24734e-01  1.09424e+00
       H -2.28506e+00  1.53698e+00  3.98119e-01
       H -3.62959e+00  9.40716e-01 -5.09672e-01
4
# CELL(abcABC): 1000.00000  1000.00000  1000.00000    90.00000    90.00000    90.00000  Step:           6  Bead:       0 positions{angstrom}  cell{angstrom}
       O -3.15603e+00  1.08109e+00  3.59855e-01
       H -3.36257e+00  4.27276e-01  1.08567e+00
       H -2.27633e+00  1.54186e+00  3.99275e-01
       H -3.65015e+00  9.41056e-01 -5.11404e-01
4
# CELL(abcABC): 1000.00000  1000.00000  1000.00000    90.00000    90.00000    90.00000  Step:           7  Bead:       0 positions{angstrom}  cell{angstrom}
       O -3.15486e+00  1.08044e+00  3.60223e-01
       H -3.36832e+00  4.31735e-01  1.07671e+00
       H -2.26981e+00  1.54543e+00  4.01235e-01
       H -3.66959e+00  9.43443e-01 -5.10252e-01
4
# CELL(abcABC): 1000.00000  1000.00000  1000.00000    90.00000    90.00000    90.00000  Step:           8  Bead:       0 positions{angstrom}  cell{angstrom}
       O -3.15378e+00  1.07977e+00  3.60549e-01
       H -3.37227e+00  4.37542e-01  1.06617e+00
       H -2.26495e+00  1.54668e+00  4.02581e-01
       H -3.68760e+00  9.46978e-01 -5.06221e-01
4
# CELL(abcABC): 1000.00000  1000.00000  1000.00000    90.00000    90.00000    90.00000  Step:           9  Bead:       0 positions{angstrom}  cell{angstrom}
       O -3.15275e+00  1.07922e+00  3.60565e-01
       H -3.37545e+00  4.43051e-01  1.05681e+00
       H -2.26207e+00  1.54637e+00  4.04562e-01
       H -3.70366e+00  9.50521e-01 -4.99107e-01
4
# CELL(abcABC): 1000.00000  1000.00000  1000.00000    90.00000    90.00000    90.00000  Step:          10  Bead:       0 positions{angstrom}  cell{angstrom}
       O -3.15172e+00  1.07867e+00  3.60460e-01
       H -3.37782e+00  4.48335e-01  1.04768e+00
       H -2.26215e+00  1.54487e+00  4.05829e-01
       H -3.71754e+00  9.55385e-01 -4.89570e-01
4
# CELL(abcABC): 1000.00000  1000.00000  1000.00000    90.00000    90.00000    90.00000  Step:          11  Bead:       0 positions{angstrom}  cell{angstrom}
       O -3.15069e+00  1.07825e+00  3.60206e-01
       H -3.37935e+00  4.53397e-01  1.03912e+00
       H -2.26655e+00  1.54122e+00  4.06677e-01
       H -3.72796e+00  9.60661e-01 -4.77828e-01
4
# CELL(abcABC): 1000.00000  1000.00000  1000.00000    90.00000    90.00000    90.00000  Step:          12  Bead:       0 positions{angstrom}  cell{angstrom}
       O -3.14983e+00  1.07803e+00  3.59704e-01
       H -3.37908e+00  4.56654e-01  1.03302e+00
       H -2.27356e+00  1.53472e+00  4.06493e-01
       H -3.73493e+00  9.67407e-01 -4.63571e-01
4
# CELL(abcABC): 1000.00000  1000.00000  1000.00000    90.00000    90.00000    90.00000  Step:          13  Bead:       0 positions{angstrom}  cell{angstrom}
       O -3.14910e+00  1.07797e+00  3.58858e-01
       H -3.37834e+00  4.58400e-01  1.03058e+00
       H -2.28095e+00  1.52692e+00  4.06264e-01
       H -3.73973e+00  9.74393e-01 -4.47490e-01
4
# CELL(abcABC): 1000.00000  1000.00000  1000.00000    90.00000    90.00000    90.00000  Step:          14  Bead:       0 positions{angstrom}  cell{angstrom}
       O -3.14857e+00  1.07802e+00  3.57682e-01
       H -3.37588e+00  4.57652e-01  1.03229e+00
       H -2.28847e+00  1.51914e+00  4.05936e-01
       H -3.74316e+00  9.82233e-01 -4.30202e-01
4
# CELL(abcABC): 1000.00000  1000.00000  1000.00000    90.00000    90.00000    90.00000  Step:          15  Bead:       0 positions{angstrom}  cell{angstrom}
       O -3.14813e+00  1.07801e+00  3.56066e-01
       H -3.37499e+00  4.54476e-01  1.03969e+00
       H -2.29616e+00  1.51197e+00  4.05697e-01
       H -3.74334e+00  9.92638e-01 -4.11709e-01
4
# CELL(abcABC): 1000.00000  1000.00000  1000.00000    90.00000    90.00000    90.00000  Step:          16  Bead:       0 positions{angstrom}  cell{angstrom}
       O -3.14793e+00  1.07790e+00  3.54351e-01
       H -3.37250e+00  4.49862e-01  1.04943e+00
       H -2.30246e+00  1.50669e+00  4.05409e-01
       H -3.74278e+00  1.00428e+00 -3.93936e-01
4
# CELL(abcABC): 1000.00000  1000.00000  1000.00000    90.00000    90.00000    90.00000  Step:          17  Bead:       0 positions{angstrom}  cell{angstrom}
       O -3.14782e+00  1.07765e+00  3.52681e-01
       H -3.36853e+00  4.45594e-01  1.06099e+00
       H -2.30734e+00  1.50353e+00  4.04011e-01
       H -3.74351e+00  1.01562e+00 -3.77588e-01
4
# CELL(abcABC): 1000.00000  1000.00000  1000.00000    90.00000    90.00000    90.00000  Step:          18  Bead:       0 positions{angstrom}  cell{angstrom}
       O -3.14785e+00  1.07710e+00  3.51205e-01
       H -3.36467e+00  4.42953e-01  1.07324e+00
       H -2.30805e+00  1.50230e+00  4.02321e-01
       H -3.74618e+00  1.02825e+00 -3.64718e-01
4
# CELL(abcABC): 1000.00000  1000.00000  1000.00000    90.00000    90.00000    90.00000  Step:          19  Bead:       0 positions{angstrom}  cell{angstrom}
       O -3.14810e+00  1.07633e+00  3.50031e-01
       H -3.35935e+00  4.41743e-01  1.08547e+00
       H -2.30640e+00  1.50253e+00  3.99665e-01
       H -3.74927e+00  1.04147e+00 -3.55665e-01
4
# CELL(abcABC): 1000.00000  1000.00000  1000.00000    90.00000    90.00000    90.00000  Step:          20  Bead:       0 positions{angstrom}  cell{angstrom}
       O -3.14840e+00  1.07532e+00  3.49332e-01
       H -3.35285e+00  4.43099e-01  1.09497e+00
       H -2.30288e+00  1.50479e+00  3.96861e-01
       H -3.75443e+00  1.05397e+00 -3.51265e-01
4
# CELL(abcABC): 1000.00000  1000.00000  1000.00000    90.00000    90.00000    90.00000  Step:          21  Bead:       0 positions{angstrom}  cell{angstrom}
       O -3.14880e+00  1.07402e+00  3.49167e-01
       H -3.34572e+00  4.46294e-01  1.10142e+00
       H -2.29555e+00  1.50923e+00  3.94536e-01
       H -3.76252e+00  1.06689e+00 -3.52773e-01
4
# CELL(abcABC): 1000.00000  1000.00000  1000.00000    90.00000    90.00000    90.00000  Step:          22  Bead:       0 positions{angstrom}  cell{angstrom}
       O -3.14924e+00  1.07241e+00  3.49541e-01
       H -3.33885e+00  4.50912e-01  1.10676e+00
       H -2.28494e+00  1.51499e+00  3.90054e-01
       H -3.77306e+00  1.08204e+00 -3.59565e-01
4
# CELL(abcABC): 1000.00000  1000.00000  1000.00000    90.00000    90.00000    90.00000  Step:          23  Bead:       0 positions{angstrom}  cell{angstrom}
       O -3.14965e+00  1.07062e+00  3.50476e-01
       H -3.33115e+00  4.58192e-01  1.10950e+00
       H -2.27359e+00  1.52155e+00  3.85354e-01
       H -3.78567e+00  1.09666e+00 -3.72448e-01
4
# CELL(abcABC): 1000.00000  1000.00000  1000.00000    90.00000    90.00000    90.00000  Step:          24  Bead:       0 positions{angstrom}  cell{angstrom}
       O -3.14999e+00  1.06864e+00  3.51666e-01
       H -3.32247e+00  4.66188e-01  1.11049e+00
       H -2.26333e+00  1.52871e+00  3.80295e-01
       H -3.79914e+00  1.11297e+00 -3.87263e-01
4
# CELL(abcABC): 1000.00000  1000.00000  1000.00000    90.00000    90.00000    90.00000  Step:          25  Bead:       0 positions{angstrom}  cell{angstrom}
       O -3.15019e+00  1.06674e+00  3.52861e-01
       H -3.31375e+00  4.74322e-01  1.11124e+00
       H -2.25606e+00  1.53407e+00  3.74867e-01
       H -3.81201e+00  1.12956e+00 -4.01557e-01
4
# CELL(abcABC): 1000.00000  1000.00000  1000.00000    90.00000    90.00000    90.00000  Step:          26  Bead:       0 positions{angstrom}  cell{angstrom}
       O -3.15025e+00  1.06502e+00  3.53984e-01
       H -3.30524e+00  4.82319e-01  1.11092e+00
       H -2.25192e+00  1.53747e+00  3.68776e-01
       H -3.82362e+00  1.14553e+00 -4.12965e-01
4
# CELL(abcABC): 1000.00000  1000.00000  1000.00000    90.00000    90.00000    90.00000  Step:          27  Bead:       0 positions{angstrom}  cell{angstrom}
       O -3.15030e+00  1.06345e+00  3.54957e-01
       H -3.29738e+00  4.91124e-01  1.11035e+00
       H -2.25165e+00  1.53804e+00  3.61985e-01
       H -3.83100e+00  1.16113e+00 -4.21044e-01
4
# CELL(abcABC): 1000.00000  1000.00000  1000.00000    90.00000    90.00000    90.00000  Step:          28  Bead:       0 positions{angstrom}  cell{angstrom}
       O -3.15019e+00  1.06211e+00  3.55583e-01
       H -3.29131e+00  4.97561e-01  1.11089e+00
       H -2.25473e+00  1.53665e+00  3.55183e-01
       H -3.83581e+00  1.17733e+00 -4.24725e-01
4
# CELL(abcABC): 1000.00000  1000.00000  1000.00000    90.00000    90.00000    90.00000  Step:          29  Bead:       0 positions{angstrom}  cell{angstrom}
       O -3.15001e+00  1.06099e+00  3.55867e-01
       H -3.28547e+00  5.03003e-01  1.11185e+00
       H -2.26248e+00  1.53322e+00  3.48212e-01
       H -3.83670e+00  1.19303e+00 -4.23230e-01
4
# CELL(abcABC): 1000.00000  1000.00000  1000.00000    90.00000    90.00000    90.00000  Step:          30  Bead:       0 positions{angstrom}  cell{angstrom}
       O -3.14978e+00  1.06003e+00  3.55718e-01
       H -3.28030e+00  5.07790e-01  1.11582e+00
       H -2.27355e+00  1.52810e+00  3.41568e-01
       H -3.83439e+00  1.20861e+00 -4.18176e-01
4
# CELL(abcABC): 1000.00000  1000.00000  1000.00000    90.00000    90.00000    90.00000  Step:          31  Bead:       0 positions{angstrom}  cell{angstrom}
       O -3.14969e+00  1.05919e+00  3.55227e-01
       H -3.27468e+00  5.11026e-01  1.12228e+00
       H -2.28608e+00  1.52304e+00  3.34244e-01
       H -3.82896e+00  1.22386e+00 -4.09529e-01
4
# CELL(abcABC): 1000.00000  1000.00000  1000.00000    90.00000    90.00000    90.00000  Step:          32  Bead:       0 positions{angstrom}  cell{angstrom}
       O -3.14962e+00  1.05861e+00  3.54196e-01
       H -3.27114e+00  5.10871e-01  1.13135e+00
       H -2.29891e+00  1.51890e+00  3.28109e-01
       H -3.82076e+00  1.23734e+00 -3.96094e-01
4
# CELL(abcABC): 1000.00000  1000.00000  1000.00000    90.00000    90.00000    90.00000  Step:          33  Bead:       0 positions{angstrom}  cell{angstrom}
       O -3.14964e+00  1.05825e+00  3.52787e-01
       H -3.26924e+00  5.09037e-01  1.14280e+00
       H -2.31086e+00  1.51418e+00  3.22462e-01
       H -3.81048e+00  1.24952e+00 -3.79537e-01
4
# CELL(abcABC): 1000.00000  1000.00000  1000.00000    90.00000    90.00000    90.00000  Step:          34  Bead:       0 positions{angstrom}  cell{angstrom}
       O -3.14965e+00  1.05794e+00  3.51345e-01
       H -3.26789e+00  5.06766e-01  1.15402e+00
       H -2.32271e+00  1.51012e+00  3.17149e-01
       H -3.79976e+00  1.26088e+00 -3.62550e-01
4
# CELL(abcABC): 1000.00000  1000.00000  1000.00000    90.00000    90.00000    90.00000  Step:          35  Bead:       0 positions{angstrom}  cell{angstrom}
       O -3.14986e+00  1.05748e+00  3.49921e-01
       H -3.26573e+00  5.04858e-01  1.16325e+00
       H -2.33240e+00  1.50896e+00  3.12495e-01
       H -3.78892e+00  1.27114e+00 -3.44527e-01
4
# CELL(abcABC): 1000.00000  1000.00000  1000.00000    90.00000    90.00000    90.00000  Step:          36  Bead:       0 positions{angstrom}  cell{angstrom}
       O -3.15026e+00  1.05675e+00  3.48675e-01
       H -3.26412e+00  5.03943e-01  1.16979e+00
       H -2.33746e+00  1.51166e+00  3.06973e-01
       H -3.77915e+00  1.28093e+00 -3.25752e-01
4
# CELL(abcABC): 1000.00000  1000.00000  1000.00000    90.00000    90.00000    90.00000  Step:          37  Bead:       0 positions{angstrom}  cell{angstrom}
       O -3.15081e+00  1.05583e+00  3.47597e-01
       H -3.26261e+00  5.05173e-01  1.17530e+00
       H -2.33719e+00  1.51649e+00  3.00953e-01
       H -3.77217e+00  1.28952e+00 -3.08133e-01
4
# CELL(abcABC): 1000.00000  1000.00000  1000.00000    90.00000    90.00000    90.00000  Step:          38  Bead:       0 positions{angstrom}  cell{angstrom}
       O -3.15119e+00  1.05464e+00  3.47057e-01
       H -3.26280e+00  5.07735e-01  1.17650e+00
       H -2.33246e+00  1.52257e+00  2.94693e-01
       H -3.77072e+00  1.29981e+00 -2.94507e-01
4
# CELL(abcABC): 1000.00000  1000.00000  1000.00000    90.00000    90.00000    90.00000  Step:          39  Bead:       0 positions{angstrom}  cell{angstrom}
       O -3.15160e+00  1.05333e+00  3.46812e-01
       H -3.26292e+00  5.11225e-01  1.17516e+00
       H -2.32390e+00  1.52913e+00  2.89499e-01
       H -3.77257e+00  1.31054e+00 -2.84088e-01
4
# CELL(abcABC): 1000.00000  1000.00000  1000.00000    90.00000    90.00000    90.00000  Step:          40  Bead:       0 positions{angstrom}  cell{angstrom}
       O -3.15183e+00  1.05179e+00  3.46755e-01
       H -3.26368e+00  5.16188e-01  1.17207e+00
       H -2.31303e+00  1.53655e+00  2.86279e-01
       H -3.77911e+00  1.32251e+00 -2.76876e-01
4
# CELL(abcABC): 1000.00000  1000.00000  1000.00000    90.00000    90.00000    90.00000  Step:          41  Bead:       0 positions{angstrom}  cell{angstrom}
       O -3.15174e+00  1.05013e+00  3.46936e-01
       H -3.26544e+00  5.22887e-01  1.16646e+00
       H -2.30100e+00  1.54409e+00  2.83925e-01
       H -3.79083e+00  1.33462e+00 -2.71776e-01
4
# CELL(abcABC): 1000.00000  1000.00000  1000.00000    90.00000    90.00000    90.00000  Step:          42  Bead:       0 positions{angstrom}  cell{angstrom}
       O -3.15140e+00  1.04862e+00  3.47333e-01
       H -3.26651e+00  5.28208e-01  1.15932e+00
       H -2.28963e+00  1.55050e+00  2.82679e-01
       H -3.80651e+00  1.34698e+00 -2.69694e-01
4
# CELL(abcABC): 1000.00000  1000.00000  1000.00000    90.00000    90.00000    90.00000  Step:          43  Bead:       0 positions{angstrom}  cell{angstrom}
       O -3.15068e+00  1.04716e+00  3.47760e-01
       H -3.26863e+00  5.34195e-01  1.15167e+00
       H -2.28024e+00  1.55635e+00  2.82557e-01
       H -3.82511e+00  1.35821e+00 -2.68711e-01
4
# CELL(abcABC): 1000.00000  1000.00000  1000.00000    90.00000    90.00000    90.00000  Step:          44  Bead:       0 positions{angstrom}  cell{angstrom}
       O -3.14960e+00  1.04599e+00  3.48052e-01
       H -3.27138e+00  5.38669e-01  1.14441e+00
       H -2.27382e+00  1.55933e+00  2.82959e-01
       H -3.84589e+00  1.36938e+00 -2.66478e-01
4
# CELL(abcABC): 1000.00000  1000.00000  1000.00000    90.00000    90.00000    90.00000  Step:          45  Bead:       0 positions{angstrom}  cell{angstrom}
       O -3.14814e+00  1.04518e+00  3.48133e-01
       H -3.27555e+00  5.41818e-01  1.13855e+00
       H -2.27025e+00  1.55895e+00  2.83597e-01
       H -3.86854e+00  1.37954e+00 -2.62538e-01
4
# CELL(abcABC): 1000.00000  1000.00000  1000.00000    90.00000    90.00000    90.00000  Step:          46  Bead:       0 positions{angstrom}  cell{angstrom}
       O -3.14650e+00  1.04478e+00  3.47873e-01
       H -3.28062e+00  5.43685e-01  1.13512e+00
       H -2.27048e+00  1.55489e+00  2.84791e-01
       H -3.88932e+00  1.38803e+00 -2.56177e-01
4
# CELL(abcABC): 1000.00000  1000.00000  1000.00000    90.00000    90.00000    90.00000  Step:          47  Bead:       0 positions{angstrom}  cell{angstrom}
       O -3.14469e+00  1.04468e+00  3.47310e-01
       H -3.28635e+00  5.43199e-01  1.13519e+00
       H -2.27401e+00  1.54842e+00  2.86070e-01
       H -3.90870e+00  1.39656e+00 -2.48593e-01
4
# CELL(abcABC): 1000.00000  1000.00000  1000.00000    90.00000    90.00000    90.00000  Step:          48  Bead:       0 positions{angstrom}  cell{angstrom}
       O -3.14284e+00  1.04505e+00  3.46305e-01
       H -3.29206e+00  5.39760e-01  1.13861e+00
       H -2.28035e+00  1.54033e+00  2.87445e-01
       H -3.92605e+00  1.40225e+00 -2.37432e-01
4
# CELL(abcABC): 1000.00000  1000.00000  1000.00000    90.00000    90.00000    90.00000  Step:          49  Bead:       0 positions{angstrom}  cell{angstrom}
       O -3.14112e+00  1.04572e+00  3.44806e-01
       H -3.29785e+00  5.34443e-01  1.14482e+00
       H -2.28737e+00  1.53038e+00  2.89618e-01
       H -3.94062e+00  1.40681e+00 -2.22019e-01
4
# CELL(abcABC): 1000.00000  1000.00000  1000.00000    90.00000    90.00000    90.00000  Step:          50  Bead:       0 positions{angstrom}  cell{angstrom}
       O -3.13943e+00  1.04667e+00  3.43115e-01
       H -3.30373e+00  5.28595e-01  1.15175e+00
       H -2.29680e+00  1.51893e+00  2.92372e-01
       H -3.95211e+00  1.40908e+00 -2.04870e-01
4
# CELL(abcABC): 1000.00000  1000.00000  1000.00000    90.00000    90.00000    90.00000  Step:          51  Bead:       0 positions{angstrom}  cell{angstrom}
       O -3.13809e+00  1.04769e+00  3.41254e-01
       H -3.30940e+00  5.22469e-01  1.15798e+00
       H -2.30569e+00  1.50803e+00  2.95255e-01
       H -3.95882e+00  1.40993e+00 -1.84449e-01
4
# CELL(abcABC): 1000.00000  1000.00000  1000.00000    90.00000    90.00000    90.00000  Step:          52  Bead:       0 positions{angstrom}  cell{angstrom}
       O -3.13718e+00  1.04876e+00  3.39429e-01
       H -3.31461e+00  5.16964e-01  1.16285e+00
       H -2.31237e+00  1.49789e+00  2.97068e-01
       H -3.96129e+00  1.40862e+00 -1.62150e-01
4
# CELL(abcABC): 1000.00000  1000.00000  1000.00000    90.00000    90.00000    90.00000  Step:          53  Bead:       0 positions{angstrom}  cell{angstrom}
       O -3.13684e+00  1.04964e+00  3.37595e-01
       H -3.31810e+00  5.13386e-01  1.16455e+00
       H -2.31542e+00  1.49144e+00  2.99410e-01
       H -3.96017e+00  1.40464e+00 -1.37080e-01
4
# CELL(abcABC): 1000.00000  1000.00000  1000.00000    90.00000    90.00000    90.00000  Step:          54  Bead:       0 positions{angstrom}  cell{angstrom}
       O -3.13704e+00  1.05037e+00  3.35598e-01
       H -3.32035e+00  5.10635e-01  1.16463e+00
       H -2.31416e+00  1.48858e+00  3.02339e-01
       H -3.95600e+00  1.39871e+00 -1.08396e-01
4
# CELL(abcABC): 1000.00000  1000.00000  1000.00000    90.00000    90.00000    90.00000  Step:          55  Bead:       0 positions{angstrom}  cell{angstrom}
       O -3.13779e+00  1.05081e+00  3.33734e-01
       H -3.32173e+00  5.09924e-01  1.16256e+00
       H -2.30806e+00  1.48884e+00  3.05732e-01
       H -3.94884e+00  1.39210e+00 -8.01304e-02
4
# CELL(abcABC): 1000.00000  1000.00000  1000.00000    90.00000    90.00000    90.00000  Step:          56  Bead:       0 positions{angstrom}  cell{angstrom}
       O -3.13897e+00  1.05089e+00  3.32095e-01
       H -3.31937e+00  5.11364e-01  1.15820e+00
       H -2.29830e+00  1.49150e+00  3.07828e-01
       H -3.94222e+00  1.38673e+00 -5.18559e-02
4
# CELL(abcABC): 1000.00000  1000.00000  1000.00000    90.00000    90.00000    90.00000  Step:          57  Bead:       0 positions{angstrom}  cell{angstrom}
       O -3.14031e+00  1.05060e+00  3.30675e-01
       H -3.31381e+00  5.15037e-01  1.15185e+00
       H -2.28725e+00  1.49567e+00  3.10719e-01
       H -3.93762e+00  1.38351e+00 -2.58530e-02
4
# CELL(abcABC): 1000.00000  1000.00000  1000.00000    90.00000    90.00000    90.00000  Step:          58  Bead:       0 positions{angstrom}  cell{angstrom}
       O -3.14168e+00  1.05004e+00  3.29540e-01
       H -3.30558e+00  5.19148e-01  1.14351e+00
       H -2.27504e+00  1.50103e+00  3.14067e-01
       H -3.93628e+00  1.38286e+00 -2.83929e-03
4
# CELL(abcABC): 1000.00000  1000.00000  1000.00000    90.00000    90.00000    90.00000  Step:          59  Bead:       0 positions{angstrom}  cell{angstrom}
       O -3.14288e+00  1.04918e+00  3.28554e-01
       H -3.29499e+00  5.23907e-01  1.13436e+00
       H -2.26332e+00  1.50728e+00  3.18854e-01
       H -3.93946e+00  1.38550e+00  1.71717e-02
4
# CELL(abcABC): 1000.00000  1000.00000  1000.00000    90.00000    90.00000    90.00000  Step:          60  Bead:       0 positions{angstrom}  cell{angstrom}
       O -3.14378e+00  1.04819e+00  3.27824e-01
       H -3.28419e+00  5.28040e-01  1.12554e+00
       H -2.25299e+00  1.51260e+00  3.21902e-01
       H -3.94641e+00  1.39181e+00  3.45330e-02
4
# CELL(abcABC): 1000.00000  1000.00000  1000.00000    90.00000    90.00000    90.00000  Step:          61  Bead:       0 positions{angstrom}  cell{angstrom}
       O -3.14435e+00  1.04715e+00  3.27253e-01
       H -3.27152e+00  5.30576e-01  1.11787e+00
       H -2.24464e+00  1.51676e+00  3.23450e-01
       H -3.95827e+00  1.40162e+00  4.97210e-02
4
# CELL(abcABC): 1000.00000  1000.00000  1000.00000    90.00000    90.00000    90.00000  Step:          62  Bead:       0 positions{angstrom}  cell{angstrom}
       O -3.14445e+00  1.04621e+00  3.26852e-01
       H -3.25887e+00  5.30472e-01  1.11222e+00
       H -2.24154e+00  1.51903e+00  3.24210e-01
       H -3.97257e+00  1.41434e+00  6.09767e-02
4
# CELL(abcABC): 1000.00000  1000.00000  1000.00000    90.00000    90.00000    90.00000  Step:          63  Bead:       0 positions{angstrom}  cell{angstrom}
       O -3.14413e+00  1.04528e+00  3.26254e-01
       H -3.24535e+00  5.29038e-01  1.11023e+00
       H -2.24317e+00  1.51893e+00  3.24448e-01
       H -3.98947e+00  1.43072e+00  7.22247e-02
4
# CELL(abcABC): 1000.00000  1000.00000  1000.00000    90.00000    90.00000    90.00000  Step:          64  Bead:       0 positions{angstrom}  cell{angstrom}
       O -3.14360e+00  1.04450e+00  3.25515e-01
       H -3.23022e+00  5.25455e-01  1.11266e+00
       H -2.24877e+00  1.51701e+00  3.24301e-01
       H -4.00742e+00  1.44851e+00  8.16677e-02
4
# CELL(abcABC): 1000.00000  1000.00000  1000.00000    90.00000    90.00000    90.00000  Step:          65  Bead:       0 positions{angstrom}  cell{angstrom}
       O -3.14296e+00  1.04386e+00  3.24685e-01
       H -3.21563e+00  5.20356e-01  1.11707e+00
       H -2.25751e+00  1.51504e+00  3.23511e-01
       H -4.02350e+00  1.46585e+00  9.12243e-02
4
# CELL(abcABC): 1000.00000  1000.00000  1000.00000    90.00000    90.00000    90.00000  Step:          66  Bead:       0 positions{angstrom}  cell{angstrom}
       O -3.14234e+00  1.04328e+00  3.23665e-01
       H -3.20103e+00  5.16249e-01  1.12452e+00
       H -2.26912e+00  1.51077e+00  3.22498e-01
       H -4.03629e+00  1.48336e+00  1.00977e-01
4
# CELL(abcABC): 1000.00000  1000.00000  1000.00000    90.00000    90.00000    90.00000  Step:          67  Bead:       0 positions{angstrom}  cell{angstrom}
       O -3.14179e+00  1.04291e+00  3.22584e-01
       H -3.18622e+00  5.10441e-01  1.13258e+00
       H -2.28204e+00  1.50648e+00  3.21398e-01
       H -4.04694e+00  1.49937e+00  1.11173e-01
4
# CELL(abcABC): 1000.00000  1000.00000  1000.00000    90.00000    90.00000    90.00000  Step:          68  Bead:       0 positions{angstrom}  cell{angstrom}
       O -3.14152e+00  1.04256e+00  3.21651e-01
       H -3.17097e+00  5.04220e-01  1.14067e+00
       H -2.29504e+00  1.50302e+00  3.18024e-01
       H -4.05341e+00  1.51466e+00  1.21274e-01
4
# CELL(abcABC): 1000.00000  1000.00000  1000.00000    90.00000    90.00000    90.00000  Step:          69  Bead:       0 positions{angstrom}  cell{angstrom}
       O -3.14155e+00  1.04232e+00  3.20601e-01
       H -3.15643e+00  4.96911e-01  1.14968e+00
       H -2.30766e+00  1.50126e+00  3.14779e-01
       H -4.05481e+00  1.52754e+00  1.32164e-01
4
# CELL(abcABC): 1000.00000  1000.00000  1000.00000    90.00000    90.00000    90.00000  Step:          70  Bead:       0 positions{angstrom}  cell{angstrom}
       O -3.14219e+00  1.04186e+00  3.19691e-01
       H -3.14199e+00  4.91216e-01  1.15595e+00
       H -2.31762e+00  1.50273e+00  3.10402e-01
       H -4.04920e+00  1.53897e+00  1.44719e-01
4
# CELL(abcABC): 1000.00000  1000.00000  1000.00000    90.00000    90.00000    90.00000  Step:          71  Bead:       0 positions{angstrom}  cell{angstrom}
       O -3.14326e+00  1.04135e+00  3.19035e-01
       H -3.12890e+00  4.85805e-01  1.15829e+00
       H -2.32465e+00  1.50673e+00  3.04670e-01
       H -4.03831e+00  1.54854e+00  1.58525e-01
4
# CELL(abcABC): 1000.00000  1000.00000  1000.00000    90.00000    90.00000    90.00000  Step:          72  Bead:       0 positions{angstrom}  cell{angstrom}
       O -3.14483e+00  1.04057e+00  3.18547e-01
       H -3.11625e+00  4.82211e-01  1.15796e+00
       H -2.32774e+00  1.51412e+00  2.98756e-01
       H -4.02290e+00  1.55715e+00  1.72520e-01
4
# CELL(abcABC): 1000.00000  1000.00000  1000.00000    90.00000    90.00000    90.00000  Step:          73  Bead:       0 positions{angstrom}  cell{angstrom}
       O -3.14674e+00  1.03965e+00  3.18357e-01
       H -3.10469e+00  4.80025e-01  1.15442e+00
       H -2.32749e+00  1.52486e+00  2.91963e-01
       H -4.00430e+00  1.56320e+00  1.85861e-01
4
# CELL(abcABC): 1000.00000  1000.00000  1000.00000    90.00000    90.00000    90.00000  Step:          74  Bead:       0 positions{angstrom}  cell{angstrom}
       O -3.14894e+00  1.03852e+00  3.18548e-01
       H -3.09388e+00  4.79334e-01  1.14672e+00
       H -2.32491e+00  1.53794e+00  2.83165e-01
       H -3.98289e+00  1.56864e+00  1.99335e-01
4
# CELL(abcABC): 1000.00000  1000.00000  1000.00000    90.00000    90.00000    90.00000  Step:          75  Bead:       0 positions{angstrom}  cell{angstrom}
       O -3.15104e+00  1.03734e+00  3.18928e-01
       H -3.08470e+00  4.78707e-01  1.13617e+00
       H -2.32194e+00  1.55174e+00  2.74396e-01
       H -3.96167e+00  1.57422e+00  2.12617e-01
4
# CELL(abcABC): 1000.00000  1000.00000  1000.00000    90.00000    90.00000    90.00000  Step:          76  Bead:       0 positions{angstrom}  cell{angstrom}
       O -3.15311e+00  1.03599e+00  3.19319e-01
       H -3.07585e+00  4.78879e-01  1.12522e+00
       H -2.31943e+00  1.56591e+00  2.65144e-01
       H -3.94010e+00  1.58131e+00  2.26612e-01
4
# CELL(abcABC): 1000.00000  1000.00000  1000.00000    90.00000    90.00000    90.00000  Step:          77  Bead:       0 positions{angstrom}  cell{angstrom}
       O -3.15483e+00  1.03462e+00  3.19740e-01
       H -3.06821e+00  4.79954e-01  1.11374e+00
       H -2.31885e+00  1.57970e+00  2.56107e-01
       H -3.92112e+00  1.58824e+00  2.40454e-01
4
# CELL(abcABC): 1000.00000  1000.00000  1000.00000    90.00000    90.00000    90.00000  Step:          78  Bead:       0 positions{angstrom}  cell{angstrom}
       O -3.15607e+00  1.03332e+00  3.20313e-01
       H -3.06280e+00  4.79700e-01  1.10185e+00
       H -2.31969e+00  1.59259e+00  2.46596e-01
       H -3.90590e+00  1.59624e+00  2.52756e-01
4
# CELL(abcABC): 1000.00000  1000.00000  1000.00000    90.00000    90.00000    90.00000  Step:          79  Bead:       0 positions{angstrom}  cell{angstrom}
       O -3.15688e+00  1.03224e+00  3.20762e-01
       H -3.05899e+00  4.78644e-01  1.09284e+00
       H -2.32195e+00  1.60234e+00  2.36836e-01
       H -3.89460e+00  1.60458e+00  2.64393e-01
4
# CELL(abcABC): 1000.00000  1000.00000  1000.00000    90.00000    90.00000    90.00000  Step:          80  Bead:       0 positions{angstrom}  cell{angstrom}
       O -3.15725e+00  1.03137e+00  3.20948e-01
       H -3.05560e+00  4.76065e-01  1.08625e+00
       H -2.32666e+00  1.60902e+00  2.28244e-01
       H -3.88743e+00  1.61434e+00  2.76625e-01
4
# CELL(abcABC): 1000.00000  1000.00000  1000.00000    90.00000    90.00000    90.00000  Step:          81  Bead:       0 positions{angstrom}  cell{angstrom}
       O -3.15716e+00  1.03059e+00  3.20995e-01
       H -3.05079e+00  4.72307e-01  1.08194e+00
       H -2.33466e+00  1.61448e+00  2.20090e-01
       H -3.88568e+00  1.62510e+00  2.88337e-01
4
# CELL(abcABC): 1000.00000  1000.00000  1000.00000    90.00000    90.00000    90.00000  Step:          82  Bead:       0 positions{angstrom}  cell{angstrom}
       O -3.15660e+00  1.03020e+00  3.20725e-01
       H -3.04584e+00  4.65903e-01  1.08144e+00
       H -2.34465e+00  1.61565e+00  2.12198e-01
       H -3.88951e+00  1.63652e+00  3.01020e-01
4
# CELL(abcABC): 1000.00000  1000.00000  1000.00000    90.00000    90.00000    90.00000  Step:          83  Bead:       0 positions{angstrom}  cell{angstrom}
       O -3.15572e+00  1.03001e+00  3.20255e-01
       H -3.04134e+00  4.58236e-01  1.08397e+00
       H -2.35632e+00  1.61440e+00  2.04644e-01
       H -3.89639e+00  1.64840e+00  3.13503e-01
4
# CELL(abcABC): 1000.00000  1000.00000  1000.00000    90.00000    90.00000    90.00000  Step:          84  Bead:       0 positions{angstrom}  cell{angstrom}
       O -3.15457e+00  1.03008e+00  3.19667e-01
       H -3.03626e+00  4.48784e-01  1.08730e+00
       H -2.36980e+00  1.61105e+00  1.97248e-01
       H -3.90619e+00  1.66012e+00  3.26900e-01
4
# CELL(abcABC): 1000.00000  1000.00000  1000.00000    90.00000    90.00000    90.00000  Step:          85  Bead:       0 positions{angstrom}  cell{angstrom}