11135
# CELL(abcABC):   47.46614    47.46614    47.46614    90.00000    90.00000    90.00000  Step:       10000  Bead:       0 positions{angstrom}  cell{angstrom}
       C -5.63045e+00 -5.35654e+00  5.46972e+00
       H -6.36853e+00 -5.57907e+00  4.64131e+00
       H -6.16668e+00 -5.35409e+00  6.39694e+00
       H -4.85012e+00 -6.20519e+00  5.50531e+00
       C -4.90847e+00 -4.11288e+00  4.96916e+00
       O -3.73685e+00 -4.10754e+00  4.66175e+00
       N -5.64224e+00 -3.01182e+00  4.89218e+00
       H -6.58937e+00 -3.01801e+00  5.17489e+00
       C -5.02856e+00 -1.72794e+00  4.42541e+00
       H -4.29771e+00 -1.99552e+00  3.70271e+00
       C -6.11981e+00 -9.78901e-01  3.71842e+00
       H -5.65359e+00 -1.27293e-01  3.21887e+00
       H -6.98821e+00 -5.84714e-01  4.31744e+00
       C -6.78541e+00 -1.83738e+00  2.61334e+00
       H -7.37386e+00 -2.50141e+00  3.13287e+00
       H -6.04826e+00 -2.38163e+00  2.06829e+00
       C -7.75429e+00 -1.08103e+00  1.73862e+00
       H -7.25480e+00 -3.25526e-01  1.07328e+00
       H -8.47577e+00 -4.41449e-01  2.26435e+00
       C -8.61089e+00 -1.88696e+00  7.63583e-01
       H -9.33664e+00 -1.15140e+00  2.80817e-01
       H -9.20638e+00 -2.62546e+00  1.24627e+00
       N -7.85751e+00 -2.58126e+00 -2.98334e-01
       H -7.36287e+00 -1.94525e+00 -9.86403e-01
       H -8.56442e+00 -3.24340e+00 -7.74091e-01
       H -7.12512e+00 -3.21455e+00  6.03846e-02
       C -4.37445e+00 -9.33242e-01  5.58563e+00
       O -4.87922e+00  7.24676e-02  6.10174e+00
       N -3.12766e+00 -1.24575e+00  5.91351e+00
       H -2.68239e+00 -2.08140e+00  5.66860e+00
       H -2.65631e+00 -6.82892e-01  6.46263e+00
       O -1.05335e+01 -3.67795e+00 -2.47303e+01
       H -1.03332e+01 -4.60697e+00 -2.45471e+01
       H -1.13950e+01 -3.78052e+00 -2.50782e+01
       O -1.65540e+01 -4.05420e+00 -1.05322e+01
       H -1.63007e+01 -3.93952e+00 -9.58854e+00
       H -1.71055e+01 -3.30512e+00 -1.07077e+01
       O  1.59668e+01 -1.39829e+01 -6.01620e+00
       H  1.54766e+01 -1.44084e+01 -5.32380e+00
       H  1.66384e+01 -1.46685e+01 -6.29452e+00
       O -1.55595e+01 -1.16274e+01 -2.14679e+01
       H -1.53196e+01 -1.25494e+01 -2.11349e+01
       H -1.50337e+01 -1.10498e+01 -2.09505e+01
       O -1.28598e+01 -4.20038e+00 -1.71642e+01
       H -1.19830e+01 -4.60702e+00 -1.73476e+01
       H -1.29203e+01 -3.41486e+00 -1.77913e+01
       O  2.15039e+01 -1.94271e+01  2.01287e+01
       H  2.15499e+01 -2.02045e+01  1.95294e+01
       H  2.18997e+01 -1.97787e+01  2.09634e+01
       O -1.26365e+01 -1.02522e+01 -8.91277e+00
       H -1.27247e+01 -9.49228e+00 -9.50819e+00
       H -1.24653e+01 -9.77183e+00 -8.06272e+00
       O  2.16572e+01 -1.93468e+01 -1.13868e+01
       H  2.11402e+01 -1.93811e+01 -1.05745e+01
       H  2.22093e+01 -1.85443e+01 -1.12689e+01
       O -1.08206e+01 -2.23264e+01 -2.42705e+00
       H -1.12063e+01 -2.22942e+01 -1.50725e+00
       H -1.15074e+01 -2.18519e+01 -2.95624e+00
       O  1.14653e+01 -2.17501e+01 -1.32914e+01
       H  1.16855e+01 -2.08952e+01 -1.36766e+01
       H  1.08765e+01 -2.20881e+01 -1.39879e+01
       O -2.62613e+01 -1.07361e+01 -2.75370e+00
       H -2.65447e+01 -1.16854e+01 -2.78680e+00
       H -2.58618e+01 -1.07311e+01 -3.63551e+00
       O  5.24289e+00 -2.70770e+01 -6.80915e+00
       H  5.67587e+00 -2.75799e+01 -6.07831e+00
       H  5.66907e+00 -2.74045e+01 -7.64854e+00
       O  6.99710e+00  1.58607e+01 -9.32556e+00
       H  6.96145e+00  1.56137e+01 -1.02726e+01
       H  6.54340e+00  1.50456e+01 -9.00141e+00
       O -2.41631e+01 -1.08094e+01 -1.00641e+01
       H -2.32969e+01 -1.12640e+01 -1.03143e+01
       H -2.39704e+01 -1.04145e+01 -9.18127e+00
       O -6.72314e+00 -1.33039e+01 -1.97604e+01
       H -6.01968e+00 -1.29870e+01 -1.91356e+01
       H -7.10979e+00 -1.24841e+01 -2.01576e+01
       O -5.82341e+00 -1.01343e+01 -8.83812e+00
       H -6.32105e+00 -1.01716e+01 -9.69580e+00
       H -5.01685e+00 -1.06855e+01 -8.97515e+00
       O -1.30680e+01 -2.12292e+01 -3.92274e+00
       H -1.35201e+01 -2.11745e+01 -4.78859e+00
       H -1.31333e+01 -2.02887e+01 -3.59640e+00
       O  9.58824e-01 -1.63733e+01 -1.91234e+01
       H  6.12475e-01 -1.58043e+01 -1.98081e+01
       H  1.16103e+00 -1.56824e+01 -1.84621e+01
       O -1.06040e+01 -1.96958e+01 -1.00954e+01
       H -1.03280e+01 -1.89094e+01 -9.70488e+00
       H -1.03545e+01 -1.95244e+01 -1.10104e+01
       O -1.10004e+00  1.94833e+01 -7.54656e+00
       H -1.00722e+00  1.85306e+01 -7.66564e+00
       H -1.86697e+00  1.94171e+01 -6.90075e+00
       O -2.59487e+01 -8.21700e+00 -5.99775e+00
       H -2.56692e+01 -9.12611e+00 -6.05893e+00
       H -2.57199e+01 -7.97386e+00 -5.10894e+00
       O -2.42699e+01 -6.97228e+00 -1.43236e+01
       H -2.42665e+01 -7.55294e+00 -1.35688e+01
       H -2.40593e+01 -6.11082e+00 -1.39837e+01
       O  2.15404e+01 -1.74715e+01 -2.04421e+01
       H  2.15503e+01 -1.65302e+01 -2.06508e+01
       H  2.21650e+01 -1.77411e+01 -2.11606e+01
       O -1.92640e+01 -1.67250e+01 -1.16438e+01
       H -1.92396e+01 -1.71008e+01 -1.25390e+01
       H -1.88765e+01 -1.58842e+01 -1.18361e+01
       O -4.16601e+00 -2.11345e+01 -1.21536e+01
       H -5.05616e+00 -2.12097e+01 -1.19635e+01
       H -4.05311e+00 -2.02551e+01 -1.18065e+01
       O -1.25921e+01 -8.43122e+00  1.99369e+01
       H -1.20791e+01 -8.40420e+00  1.90764e+01
       H -1.26553e+01 -9.37801e+00  2.00980e+01
       O -4.93670e+00 -2.83300e+01 -2.06959e+01
       H -5.33950e+00 -2.74594e+01 -2.06249e+01
       H -5.51142e+00 -2.88445e+01 -2.01021e+01
       O -6.83387e+00 -4.89671e+00  1.68053e+01
       H -6.49693e+00 -5.37212e+00  1.76422e+01
       H -7.14501e+00 -4.03244e+00  1.71939e+01
       O -1.37520e+01 -3.36315e+00  9.69633e-01
       H -1.45869e+01 -3.78192e+00  1.11389e+00
       H -1.36178e+01 -3.57180e+00  3.13678e-02
       O -2.49382e+01 -8.64620e+00  2.42790e+01
       H -2.44957e+01 -9.47572e+00  2.43406e+01
       H -2.45830e+01 -8.21709e+00  2.50722e+01
       O -2.34866e+01 -1.37117e+01 -1.68597e+01
       H -2.42563e+01 -1.41288e+01 -1.73522e+01
       H -2.30357e+01 -1.32731e+01 -1.75660e+01
       O  5.43187e+00 -1.32110e+01 -2.12169e+01
       H  6.23028e+00 -1.26222e+01 -2.10935e+01
       H  5.14990e+00 -1.31392e+01 -2.02613e+01
       O  2.59811e-01 -1.10158e+01 -3.30663e+01
       H  3.68813e-01 -1.20319e+01 -3.30698e+01
       H -2.34174e-01 -1.08850e+01 -3.21887e+01
       O -1.10721e+01 -2.43724e+01  4.48933e+00
       H -1.06514e+01 -2.36369e+01  4.91907e+00
       H -1.12528e+01 -2.49040e+01  5.26020e+00
       O -1.11828e+01 -1.45393e+01 -1.27067e+01
       H -1.19199e+01 -1.39871e+01 -1.22782e+01
       H -1.14282e+01 -1.44001e+01 -1.36150e+01
       O -2.39633e+01 -1.80326e+01  2.27132e+01
       H -2.48922e+01 -1.81871e+01  2.25169e+01
       H -2.34167e+01 -1.81966e+01  2.19615e+01
       O -1.28443e+01 -2.57457e+01 -2.91207e+00
       H -1.32668e+01 -2.56729e+01 -2.00879e+00
       H -1.30210e+01 -2.49029e+01 -3.29129e+00
       O  2.42621e+00 -6.30137e+00 -2.00869e+01
       H  3.02758e+00 -6.86146e+00 -1.94594e+01
       H  2.06386e+00 -7.04923e+00 -2.06115e+01
       O -1.03641e+01 -1.57056e+00 -1.51605e+01
       H -1.09592e+01 -1.00555e+00 -1.55977e+01
       H -9.98531e+00 -8.86566e-01 -1.46009e+01
       O  2.05336e+00 -2.16030e+01 -1.71180e+01
       H  1.25863e+00 -2.13271e+01 -1.75183e+01
       H  2.54680e+00 -2.08009e+01 -1.70956e+01
       O  1.54559e+01 -1.85102e+01 -1.03116e+01
       H  1.60934e+01 -1.78348e+01 -1.05763e+01
       H  1.54888e+01 -1.91012e+01 -1.11000e+01
       O -1.51746e+01 -5.36328e+00 -2.78027e+01
       H -1.47762e+01 -5.24979e+00  1.87623e+01
       H -1.59814e+01 -4.88362e+00 -2.79227e+01
       O  1.50605e+01 -2.06453e+01 -1.20291e+01
       H  1.46013e+01 -2.13718e+01 -1.15620e+01
       H  1.48873e+01 -2.08323e+01 -1.29509e+01
       O -1.73288e+01 -8.38373e+00 -2.23521e+01
       H -1.72916e+01 -7.77849e+00 -2.31309e+01
       H -1.83068e+01 -8.39645e+00 -2.21097e+01
       O -2.42380e+01 -1.69601e+01 -1.15973e+01
       H -2.44665e+01 -1.63465e+01 -1.08829e+01
       H -2.32652e+01 -1.67592e+01 -1.15652e+01
       O -6.08442e+00 -1.51270e+01  1.30841e+01
       H -5.97608e+00 -1.61506e+01  1.31609e+01
       H -7.05123e+00 -1.49239e+01  1.31893e+01
       O -1.52352e+01 -2.31582e+01  7.33065e-01
       H -1.47909e+01 -2.37675e+01  8.77587e-02
       H -1.55471e+01 -2.37732e+01  1.33769e+00
       O  1.40743e+01 -7.03626e+00 -8.33444e+00
       H  1.41924e+01 -6.06606e+00 -8.28101e+00
       H  1.49078e+01 -7.30499e+00 -8.68542e+00
       O  6.72494e+00 -9.46591e+00 -1.02634e+01
       H  6.83580e+00 -1.00686e+01 -9.53183e+00
       H  7.24065e+00 -8.74574e+00 -9.98414e+00
       O -2.16657e+01  9.65161e-01 -1.63633e+01
       H -2.08768e+01  1.18074e+00 -1.68592e+01
       H -2.17677e+01  4.48325e-02 -1.66230e+01
       O -1.35397e+01 -6.70215e+00 -2.58702e+01
       H -1.40489e+01 -6.32227e+00 -2.65924e+01
       H -1.32131e+01 -7.53633e+00 -2.62412e+01
       O -1.02579e+01 -1.06444e+01 -1.30062e+01
       H -9.91850e+00 -1.02931e+01 -1.38582e+01
       H -9.73705e+00 -1.03000e+01 -1.22813e+01
       O -8.46298e+00 -7.30556e+00 -2.15807e+01
       H -8.87152e+00 -8.14668e+00 -2.16992e+01
       H -9.23129e+00 -6.78009e+00 -2.14670e+01
       O -1.14984e+01 -2.38325e+00 -9.67113e+00
       H -1.21438e+01 -2.02333e+00 -9.07537e+00
       H -1.15303e+01 -3.37187e+00 -9.48091e+00
       O  2.88054e+00 -8.16583e+00 -1.17460e+01
       H  2.03115e+00 -7.73880e+00 -1.14318e+01
       H  2.76102e+00 -9.08478e+00 -1.15824e+01
       O -2.16498e+01 -1.74196e+01 -8.78457e-01
       H -2.23915e+01 -1.67404e+01 -7.98655e-01
       H -2.14381e+01 -1.75693e+01  5.47880e-02
       O -1.32092e+01 -1.05028e+01 -1.46373e+00
       H -1.28402e+01 -1.11878e+01 -8.70736e-01
       H -1.25957e+01 -1.05625e+01 -2.25091e+00
       O -7.56352e+00 -1.59910e+01 -1.95643e+01
       H -7.18637e+00 -1.51523e+01 -1.98970e+01
       H -6.70712e+00 -1.64344e+01 -1.94713e+01
       O -7.17288e+00 -1.87750e+01 -1.33582e+01
       H -6.34608e+00 -1.82647e+01 -1.32736e+01
       H -7.80779e+00 -1.81219e+01 -1.30246e+01
       O -4.78716e+00  2.22724e+01  6.94323e+00
       H -5.33647e+00  2.28667e+01  6.43566e+00
       H -3.90575e+00  2.26519e+01  6.70578e+00
       O -6.93007e+00 -1.27308e+00 -1.97225e+01
       H -6.32454e+00 -1.24972e+00 -1.89865e+01
       H -6.48194e+00 -2.03409e+00 -2.02043e+01
       O -7.17458e+00  2.44895e+01  2.24529e+00
       H -7.78827e+00  2.50920e+01  2.62999e+00
       H -7.40899e+00  2.46820e+01  1.32399e+00
       O -1.51691e+01 -1.77169e+01 -1.54250e+01
       H -1.57744e+01 -1.73395e+01 -1.60381e+01
       H -1.55052e+01 -1.72363e+01 -1.46432e+01
       O  2.53971e+00 -1.56568e+01 -2.72005e+00
       H  2.91164e+00 -1.61469e+01 -3.49591e+00
       H  1.98926e+00 -1.63704e+01 -2.33323e+00
       O -4.81285e+00 -1.31893e+01  7.10235e+00
       H -5.07354e+00 -1.24660e+01  7.74632e+00
       H -4.21711e+00 -1.27872e+01  6.50055e+00
       O -1.31756e+01 -3.84324e+00  2.22814e+01
       H -1.34643e+01 -4.64488e+00  2.17775e+01
       H -1.36942e+01 -3.17209e+00  2.18339e+01
       O -1.92653e+01 -1.36825e+01 -1.17733e+01
       H -1.95923e+01 -1.39120e+01 -1.08438e+01
       H -1.87556e+01 -1.28391e+01 -1.17078e+01
       O  1.10775e+00 -1.82115e+01 -7.82590e+00
       H  1.13435e+00 -1.73779e+01 -8.32565e+00
       H  2.02157e+00 -1.83429e+01 -7.53460e+00
       O -1.46491e+01 -2.03182e+01 -1.14490e+01
       H -1.48790e+01 -2.02411e+01 -1.23561e+01
       H -1.54929e+01 -2.01299e+01 -1.09401e+01
       O -2.47427e+01 -2.47235e+01  2.15762e+01
       H -2.49739e+01 -2.49625e+01  2.06578e+01
       H -2.49844e+01 -2.37911e+01  2.15037e+01
       O  2.38529e+01  2.02764e+01  2.31404e+01
       H  2.44656e+01  1.99889e+01  2.25188e+01
       H  2.35985e+01  2.11407e+01  2.27393e+01
       O -1.01232e+01 -1.94084e+01 -6.73559e+00
       H -1.05700e+01 -1.87139e+01 -7.19759e+00
       H -1.05309e+01 -2.02809e+01 -6.99800e+00
       O -1.25934e+01 -8.56092e+00 -1.35181e+01
       H -1.16888e+01 -8.81061e+00 -1.39372e+01
       H -1.32482e+01 -8.82210e+00 -1.41889e+01
       O -1.64073e+01 -7.49604e+00  7.53133e+00
       H -1.57252e+01 -7.26469e+00  6.81624e+00
       H -1.64918e+01 -6.60235e+00  7.98216e+00
       O -1.86753e+01 -2.16818e+01 -2.49919e+01
       H -1.89695e+01 -2.07590e+01 -2.49475e+01
       H -1.87963e+01 -2.19189e+01 -2.41021e+01
       O -2.01327e+01 -1.52770e+01 -2.59422e+01
       H -2.09573e+01 -1.47467e+01 -2.55746e+01
       H -2.00175e+01 -1.48239e+01 -2.67821e+01
       O -3.39301e+00 -9.91940e+00 -1.43570e+01
       H -4.31594e+00 -9.80819e+00 -1.44877e+01
       H -3.26246e+00 -1.08866e+01 -1.42196e+01
       O -1.66278e+01 -1.62725e+01 -1.36017e+01
       H -1.75628e+01 -1.59545e+01 -1.36769e+01
       H -1.60212e+01 -1.56004e+01 -1.40131e+01
       O -1.92554e+01 -1.50362e+01 -1.40546e+01
       H -1.91663e+01 -1.44366e+01 -1.33048e+01
       H -2.01692e+01 -1.47842e+01 -1.43414e+01
       O -1.59001e+01 -1.54104e+01 -8.12645e+00
       H -1.68568e+01 -1.57452e+01 -8.05126e+00
       H -1.55471e+01 -1.53131e+01 -7.08846e+00
       O -1.26385e+01 -1.17960e+01 -1.18520e+01
       H -1.35414e+01 -1.14613e+01 -1.19004e+01
       H -1.21903e+01 -1.09783e+01 -1.20400e+01
       O  1.91856e+01 -1.00292e+01 -1.25607e+01
       H  1.92235e+01 -9.68347e+00 -1.16797e+01
       H  1.99408e+01 -1.06759e+01 -1.24940e+01
       O -2.71664e+00 -2.14149e+01 -4.91310e+00
       H -2.61754e+00 -2.04237e+01 -4.74574e+00
       H -2.81516e+00 -2.12575e+01 -5.89638e+00
       O -2.11196e+01 -2.10985e+01  1.75534e+01
       H -2.09268e+01 -2.06804e+01  1.84398e+01
       H -2.18789e+01 -2.16490e+01  1.78205e+01
       O -6.57312e+00 -1.05456e+01 -5.07792e+00
       H -6.04900e+00 -1.09762e+01 -4.36869e+00
       H -6.63342e+00 -1.12654e+01 -5.75174e+00
       O -1.57199e+01 -2.00425e+00 -1.90603e+01
       H -1.66348e+01 -1.76302e+00 -1.93723e+01
       H -1.56531e+01 -2.92851e+00 -1.92540e+01
       O  2.36310e+01 -1.69357e+01 -5.04210e+00
       H  2.40608e+01 -1.60977e+01 -5.30698e+00
       H  2.42945e+01 -1.74889e+01 -4.57305e+00
       O  1.04371e+01 -8.54105e+00 -2.08010e+01
       H  9.54356e+00 -8.59182e+00 -2.11871e+01
       H  1.00934e+01 -8.04540e+00 -2.00833e+01
       O  2.48990e+00 -2.14152e+01 -4.32240e-01
       H  3.47944e+00 -2.12157e+01 -6.24896e-01
       H  2.05991e+00 -2.13696e+01 -1.28495e+00
       O -2.24416e+01 -1.57686e+01 -2.07560e+01
       H -2.30899e+01 -1.64098e+01 -2.11035e+01
       H -2.21213e+01 -1.63165e+01 -1.99826e+01
       O -1.95777e-01 -1.38231e+01 -1.08314e+01
       H -7.32185e-01 -1.33985e+01 -1.02047e+01
       H -5.25347e-01 -1.47434e+01 -1.07736e+01
       O  5.12829e+00 -9.52616e+00 -6.87429e+00
       H  5.56519e+00 -9.08438e+00 -7.57511e+00
       H  5.71690e+00 -1.03485e+01 -6.85683e+00
       O -8.00238e+00 -5.86643e+00  1.36859e+00
       H -8.63299e+00 -5.69439e+00  2.11614e+00
       H -7.68017e+00 -6.77426e+00  1.61509e+00
       O -1.48500e+01  1.35493e+01 -9.70304e+00
       H -1.41039e+01  1.28706e+01 -9.91803e+00
       H -1.44299e+01  1.42973e+01 -1.01049e+01
       O -2.86219e+00 -1.47236e+01 -2.28829e+01
       H -2.27932e+00 -1.40842e+01 -2.24200e+01
       H -2.76523e+00 -1.46181e+01 -2.38449e+01
       O -1.87488e+01 -1.32874e+01  2.35391e+01
       H -1.90457e+01 -1.23411e+01  2.36658e+01
       H -1.94926e+01 -1.37002e+01  2.40178e+01
       O  2.11844e+01 -1.49121e+01  2.95657e+01
       H  2.03936e+01 -1.50085e+01  2.90712e+01
       H  2.08807e+01 -1.40516e+01  2.99810e+01
       O -1.09798e+01 -1.00498e+01 -1.60597e+01
       H -1.17058e+01 -1.05356e+01 -1.64851e+01
       H -1.07578e+01 -9.35310e+00 -1.67628e+01
       O -1.82558e+01 -1.09194e+01 -2.11987e+01
       H -1.73357e+01 -1.08054e+01 -2.13887e+01
       H -1.86704e+01 -1.06620e+01 -2.20278e+01
       O -1.94986e+01 -1.07878e+01  2.36219e+01
       H -1.91062e+01 -1.05856e+01  2.27039e+01
       H -1.99944e+01 -9.98480e+00  2.38705e+01
       O -9.78937e+00 -9.67006e+00 -2.20424e+01
       H -9.29394e+00 -9.94702e+00 -2.28701e+01
       H -1.06985e+01 -9.51750e+00 -2.23043e+01
       O -8.77067e+00 -1.21538e+01 -2.19196e+01
       H -7.84322e+00 -1.18580e+01 -2.20766e+01
       H -9.32413e+00 -1.13641e+01 -2.18838e+01
       O -8.53862e+00  1.57086e+01 -1.40296e+01
       H -8.74364e+00  1.66527e+01 -1.40863e+01
       H -9.32397e+00  1.53794e+01 -1.44798e+01
       O -1.54228e+01 -4.61263e-01 -1.20347e+01
       H -1.58695e+01 -5.27831e-01 -1.28636e+01
       H -1.45278e+01 -8.07380e-01 -1.22711e+01
       O -6.39032e+00 -1.47476e+01 -2.97719e+00
       H -6.47163e+00 -1.50270e+01 -3.89184e+00
       H -6.33481e+00 -1.56431e+01 -2.53478e+00
       O -4.09527e+00 -1.98056e+01 -1.98450e+01
       H -4.40942e+00 -2.02423e+01 -2.06697e+01
       H -3.49845e+00 -1.90572e+01 -2.01475e+01
       O  1.44458e+01 -8.48484e-01 -1.35460e+01
       H  1.35531e+01 -6.58436e-01 -1.38969e+01
       H  1.49059e+01  2.20847e-03 -1.34092e+01
       O -1.56924e+01 -2.47917e+00  2.30835e+01
       H -1.61218e+01 -3.30576e+00  2.33654e+01
       H -1.55087e+01 -1.98864e+00  2.39357e+01
       O  2.29988e+01 -1.88413e+01  1.43747e+01
       H  2.33497e+01 -1.84214e+01  1.52274e+01
       H  2.33752e+01 -1.82162e+01  1.37743e+01
       O -2.00524e+01 -1.14516e+01  1.44137e+01
       H -1.98086e+01 -1.14677e+01  1.35160e+01
       H -2.10062e+01 -1.15062e+01  1.43086e+01
       O -1.77893e+01  2.33414e+01 -8.18369e+00
       H -1.84599e+01  2.26560e+01 -8.11524e+00
       H -1.76263e+01  2.35936e+01 -7.27989e+00
       O -1.00856e+01 -1.29017e+01  1.73404e+01
       H -1.09006e+01 -1.29290e+01  1.67403e+01
       H -1.00632e+01 -1.38332e+01  1.77001e+01
       O  1.98724e+01 -1.66936e+01  1.19516e+01
       H  1.94674e+01 -1.57854e+01  1.20662e+01
       H  2.07487e+01 -1.63459e+01  1.18027e+01
       O  1.21917e+01 -2.34409e+01 -1.89274e+01
       H  1.28807e+01 -2.28075e+01 -1.87020e+01
       H  1.13983e+01 -2.29593e+01 -1.85181e+01
       O -1.16114e+01 -1.67192e+01 -5.21193e+00
       H -1.07895e+01 -1.61603e+01 -5.16154e+00
       H -1.20938e+01 -1.61036e+01 -5.81491e+00
       O  3.48722e+00 -1.76169e+01 -4.64625e+00
       H  4.01781e+00 -1.82388e+01 -4.07399e+00
       H  3.57325e+00 -1.81441e+01 -5.48681e+00
       O -1.12144e+01  2.06325e+01 -2.41286e+01
       H -1.08052e+01  2.01778e+01  2.41149e+01
       H -1.19768e+01  2.00643e+01  2.31176e+01
       O  1.01042e+01 -1.08057e+01  2.33348e+01
       H  1.03463e+01 -9.92946e+00 -2.46011e+01
       H  9.74783e+00 -1.13372e+01 -2.48207e+01
       O -1.93950e+00  1.42995e+01 -8.37621e-01
       H -1.15603e+00  1.39565e+01 -3.67506e-01
       H -1.53362e+00  1.49754e+01 -1.38172e+00
       O -1.21513e+01  2.36337e+01  2.04194e+01
       H -1.25959e+01  2.43565e+01  2.08291e+01
       H -1.27869e+01  2.28629e+01  2.05722e+01
       O  2.39560e+01 -2.59235e+00  3.16714e+01
       H  2.37885e+01 -2.19771e+00  3.25137e+01
       H  2.41828e+01 -3.48288e+00  3.19916e+01
       O  1.83577e+01 -1.08275e+01 -1.61962e+01
       H  1.86597e+01 -9.97379e+00 -1.61706e+01
       H  1.81049e+01 -1.09164e+01 -1.71169e+01
       O -4.10104e+00 -7.44822e+00 -1.81010e+01
       H -3.14619e+00 -7.26735e+00 -1.84668e+01
       H -4.29913e+00 -6.70104e+00 -1.74959e+01
       O -1.30137e+01 -2.36465e+01 -9.07589e+00
       H -1.27279e+01  2.46817e+01 -9.32444e+00
       H -1.39590e+01 -2.34825e+01 -9.26284e+00
       O  2.40678e+01 -3.36805e+00  2.01709e+01
       H  2.49084e+01 -3.37707e+00  2.07126e+01
       H  2.37387e+01 -4.27917e+00  2.03967e+01
       O -2.49065e+01  6.79446e+00 -3.37318e+00
       H -2.58000e+01  7.07435e+00 -3.17188e+00
       H -2.45846e+01  6.42877e+00 -2.55494e+00
       O  1.63756e+01 -4.61549e+00 -1.40696e+01
       H  1.70747e+01 -4.34920e+00 -1.47861e+01
       H  1.68959e+01 -5.34521e+00 -1.36520e+01
       O -1.28619e+01 -1.49551e+01  2.27626e+01
       H -1.28925e+01 -1.45370e+01  2.36712e+01
       H -1.33495e+01 -1.42923e+01  2.22683e+01
       O -8.37097e+00 -1.16940e+01 -8.86365e-01
       H -7.61036e+00 -1.21076e+01 -1.31306e+00
       H -8.89385e+00 -1.14480e+01 -1.68165e+00
       O -1.92038e+00 -1.81964e+01 -1.74406e+01
       H -2.06357e+00 -1.74083e+01 -1.79955e+01
       H -1.18603e+00 -1.86973e+01 -1.78501e+01
       O -1.51254e+01 -3.81754e+00 -1.29108e+01
       H -1.47642e+01 -4.70646e+00 -1.29432e+01
       H -1.56561e+01 -3.93026e+00 -1.20916e+01
       O -1.75676e+01 -1.98000e+01  2.01706e+01
       H -1.67802e+01 -1.94041e+01  1.98058e+01
       H -1.75261e+01 -1.93815e+01  2.10149e+01
       O  3.84201e+00 -2.77970e+01 -2.81698e+00
       H  3.87398e+00 -2.68425e+01 -2.58076e+00
       H  3.56052e+00 -2.77420e+01 -3.70678e+00
       O -8.24815e+00 -1.09363e+01  1.83235e+01
       H -7.71608e+00 -1.06805e+01  1.75324e+01
       H -8.81556e+00 -1.16293e+01  1.79187e+01
       O  1.05343e+00 -2.10341e+00 -9.59875e+00
       H  1.69800e+00 -1.35091e+00 -9.78571e+00
       H  3.36727e-01 -1.52650e+00 -9.27448e+00
       O -1.25048e+01 -6.83786e+00 -1.75640e+01
       H -1.33616e+01 -7.33578e+00 -1.73861e+01
       H -1.28400e+01 -5.95113e+00 -1.74960e+01
       O  2.18546e+01 -1.62690e+01 -1.39299e+01
       H  2.16389e+01 -1.53168e+01 -1.41168e+01
       H  2.24958e+01 -1.62795e+01 -1.32239e+01
       O -1.34359e+01 -1.86135e+01 -3.97301e+00
       H -1.42057e+01 -1.83848e+01 -4.51159e+00
       H -1.28066e+01 -1.80990e+01 -4.48643e+00
       O -1.71547e+01 -1.25653e+01 -1.88413e+01
       H -1.66814e+01 -1.33298e+01 -1.92692e+01
       H -1.74730e+01 -1.20393e+01 -1.95981e+01
       O -2.44428e+00 -2.32707e+01 -1.85730e+01
       H -3.23798e+00 -2.30980e+01 -1.91685e+01
       H -2.78267e+00 -2.41420e+01 -1.82672e+01
       O  1.72385e+01 -2.00449e+01 -1.58137e+01
       H  1.74720e+01 -2.04544e+01 -1.66622e+01
       H  1.79952e+01 -2.00164e+01 -1.52006e+01
       O  2.11846e+01  2.19417e+01  9.09034e+00
       H  2.03081e+01  2.19572e+01  9.39179e+00
       H  2.14317e+01  2.10125e+01  9.29011e+00
       O -1.00738e+01 -3.52378e+00 -1.18137e+01
       H -1.06797e+01 -3.72892e+00 -1.25248e+01
       H -1.06418e+01 -2.94707e+00 -1.13172e+01
       O  4.67197e-01 -2.83471e+01 -5.40238e+00
       H -2.90347e-01  1.94085e+01 -5.92149e+00
       H  1.15182e+00 -2.82193e+01 -6.10226e+00
       O -3.07147e+00 -1.33659e+01 -1.97450e+01
       H -3.60838e+00 -1.32322e+01 -1.89080e+01
       H -2.98780e+00 -1.24388e+01 -2.00659e+01
       O -2.00730e+01 -2.23782e+01  7.53785e+00
       H -2.01656e+01 -2.29423e+01  8.29138e+00
       H -1.91496e+01 -2.25846e+01  7.23782e+00
       O -1.66734e-01  1.25961e+01 -8.39553e+00
       H -5.22967e-02  1.29495e+01 -9.35085e+00
       H -1.29341e-01  1.16696e+01 -8.58791e+00
       O -2.01413e+01 -1.09800e+01 -6.39144e+00
       H -2.04934e+01 -1.03386e+01 -5.73347e+00
       H -2.01532e+01 -1.17537e+01 -5.84381e+00
       O  2.53051e+01 -1.09338e+01  1.17636e+01
       H  2.51633e+01 -1.17887e+01  1.14019e+01
       H  2.62347e+01 -1.07758e+01  1.14750e+01
       O -8.66990e+00 -2.09242e+01  3.25116e+00
       H -8.54764e+00 -2.03395e+01  3.98167e+00
       H -9.60323e+00 -2.07445e+01  3.07187e+00
       O  1.27776e+01 -1.94558e+01 -1.04014e+01
       H  1.28850e+01 -2.04291e+01 -1.04935e+01
       H  1.36399e+01  2.84152e+01 -1.03157e+01
       O -8.73573e+00  1.67058e+01  5.22659e-01
       H -7.80576e+00  1.65344e+01  6.13144e-01
       H -8.57602e+00  1.75607e+01  5.59361e-02
       O -9.48323e-01 -9.51778e+00 -2.25495e+01
       H -5.83964e-01 -8.82979e+00 -2.19029e+01
       H -8.80025e-01 -9.11914e+00 -2.34731e+01
       O  2.52021e+01 -1.42392e+01  2.28224e+01
       H  2.48442e+01 -1.32594e+01  2.27239e+01
       H  2.43995e+01 -1.47521e+01  2.30238e+01
       O  1.60379e+01  6.48880e+00 -1.20520e+00
       H  1.69077e+01  6.08122e+00 -1.55458e+00
       H  1.56229e+01  6.89295e+00 -1.97692e+00
       O  7.92742e+00 -8.16068e+00 -2.18575e+01
       H  7.23131e+00 -8.84292e+00 -2.20430e+01
       H  7.26188e+00 -7.42915e+00 -2.16223e+01
       O -1.14796e+01  2.25319e+01 -5.85121e+00
       H -1.14133e+01  2.21625e+01 -6.72466e+00
       H -1.15369e+01  2.17676e+01 -5.22944e+00
       O -8.96408e+00 -1.83660e+01 -1.72320e+01
       H -8.60341e+00 -1.80341e+01 -1.80481e+01
       H -8.15955e+00 -1.86094e+01 -1.67671e+01
       O  2.27934e+00 -6.26530e+00 -1.64680e+01
       H  1.59649e+00 -6.49737e+00 -1.71071e+01
       H  1.82953e+00 -6.52737e+00 -1.56730e+01
       O -2.91662e+00 -1.26029e+01  1.58105e+01
       H -2.99274e+00 -1.31822e+01  1.50331e+01
       H -3.75066e+00 -1.28457e+01  1.61806e+01
       O -1.13174e+01 -1.68181e+01 -2.30402e+01
       H -1.21600e+01 -1.64432e+01 -2.34621e+01
       H -1.06828e+01 -1.61074e+01 -2.31940e+01
       O  1.00441e+01 -9.71451e-01 -2.79486e+01
       H  9.61471e+00 -8.34287e-01 -2.88428e+01
       H  9.29003e+00 -1.12830e+00 -2.73639e+01
       O -1.07090e+01 -6.27507e+00  2.33513e+01
       H -1.14717e+01 -6.46671e+00  2.27878e+01
       H -1.05871e+01 -7.20263e+00  2.36899e+01
       O -1.33266e+01 -1.53910e+01 -9.08548e+00
       H -1.31912e+01 -1.44285e+01 -9.31778e+00
       H -1.42615e+01 -1.54184e+01 -8.85755e+00
       O -2.18159e+01 -6.01822e+00  2.38476e+01
       H -2.16652e+01 -5.18072e+00  2.43160e+01
       H -2.27485e+01 -6.08681e+00  2.40369e+01
       O  1.21098e+01 -3.22862e+00 -4.54809e+00
       H  1.22055e+01 -4.17003e+00 -4.83516e+00
       H  1.11423e+01 -3.11880e+00 -4.41273e+00
       O -1.10730e+01 -3.66775e-01 -2.13195e+00
       H -1.14856e+01  3.85701e-01 -2.66884e+00
       H -1.02416e+01  5.56612e-02 -1.89184e+00
       O -9.52287e+00  3.03292e+00 -2.48851e+01
       H -9.49513e+00  2.43366e+00 -2.56883e+01
       H -9.99280e+00  3.76861e+00 -2.53281e+01
       O -7.36551e+00 -2.07998e+01 -8.94623e+00
       H -6.87281e+00 -2.09195e+01 -9.79067e+00
       H -7.38436e+00 -1.97491e+01 -8.91278e+00
       O  3.07699e-01 -1.58911e+01 -2.25460e+01
       H  8.57804e-02 -1.54736e+01 -2.34086e+01
       H  6.79147e-01 -1.66794e+01 -2.30164e+01
       O -3.02561e+00 -9.72844e+00 -1.17459e+01
       H -3.50022e+00 -8.95174e+00 -1.14009e+01
       H -3.08343e+00 -9.62762e+00 -1.27197e+01
       O -8.40070e+00  2.28903e+01 -7.99248e+00
       H -8.85617e+00  2.36006e+01 -8.45675e+00
       H -9.05354e+00  2.21891e+01 -8.03084e+00
       O -3.13875e+00 -1.87752e+01 -4.47865e+00
       H -4.07735e+00 -1.87243e+01 -4.27971e+00
       H -3.22569e+00 -1.82580e+01 -5.30085e+00
       O -3.70440e-01  1.37481e+01 -1.08975e+01
       H -1.24044e+00  1.42225e+01 -1.06925e+01
       H -2.66512e-01  1.42090e+01 -1.17893e+01
       O -6.50291e+00 -1.42096e+01 -2.25278e+01
       H -6.47800e+00 -1.33514e+01 -2.20360e+01
       H -6.30384e+00 -1.38179e+01 -2.34274e+01
       O -1.48214e+01 -1.79429e+01 -8.88526e+00
       H -1.47554e+01 -1.75701e+01 -9.78747e+00
       H -1.53538e+01 -1.72356e+01 -8.45854e+00
       O -1.83662e+01 -2.00632e+01 -2.11973e+01
       H -1.84174e+01 -1.98747e+01 -2.02287e+01
       H -1.83968e+01 -2.10183e+01 -2.12078e+01
       O  6.31745e+00  2.05753e+01 -1.28776e+01
       H  6.29450e+00  2.08369e+01 -1.38356e+01
       H  5.90975e+00  2.13929e+01 -1.26041e+01
       O -1.12644e+01  2.42146e+01 -1.99968e+01
       H -1.17260e+01  2.47543e+01 -1.93065e+01
       H -1.05297e+01  2.38549e+01 -1.94281e+01
       O  2.12168e+01 -2.02344e+01  1.65559e+01
       H  2.12464e+01 -1.98423e+01  1.57127e+01
       H  2.20552e+01 -1.98978e+01  1.68934e+01
       O -5.19667e+00 -1.00034e+01 -1.71172e+01
       H -4.65023e+00 -9.16835e+00 -1.70993e+01
       H -5.94774e+00 -9.60898e+00 -1.67524e+01
       O  1.75819e+01  2.61525e+01 -7.00406e+00
       H  1.85110e+01  2.60107e+01 -6.64610e+00
       H  1.76912e+01  2.58656e+01 -7.89105e+00
       O -2.13451e+01 -7.86809e+00 -1.25295e+01
       H -2.22276e+01 -7.80703e+00 -1.28007e+01
       H -2.14272e+01 -7.21911e+00 -1.18330e+01
       O -2.39630e+01  7.27103e-01 -3.71543e+00
       H -2.44802e+01  1.38283e+00 -4.24283e+00
       H -2.40761e+01  1.27462e+00 -2.86055e+00
       O -5.36224e+00 -6.32955e+00 -5.51512e+00
       H -5.47732e+00 -6.29282e+00 -4.57013e+00
       H -4.86825e+00 -7.16858e+00 -5.73592e+00
       O -1.26622e+01  8.07608e+00  1.89834e+01
       H -1.34098e+01  7.66280e+00  1.85633e+01
       H -1.19801e+01  7.38646e+00  1.89342e+01
       O  4.23516e+00  2.18197e+01 -9.29114e+00
       H  4.80719e+00 -2.51780e+01 -9.89841e+00
       H  4.31084e+00  2.23938e+01 -8.52865e+00
       O -2.01265e+01 -1.44053e+01 -9.13346e+00
       H -2.06725e+01 -1.39485e+01 -8.45168e+00
       H -1.93839e+01 -1.48025e+01 -8.62884e+00
       O -1.73771e+01  1.35448e+01 -1.50762e+01
       H -1.78793e+01  1.43476e+01 -1.51806e+01
       H -1.69740e+01  1.34711e+01 -1.59433e+01
       O -1.71657e+01 -1.23424e+01 -5.41747e+00
       H -1.74837e+01 -1.15684e+01 -4.93989e+00
       H -1.79340e+01 -1.29164e+01 -5.28042e+00
       O -3.37580e+00 -3.16659e+00 -1.53622e+01
       H -2.38523e+00 -3.21954e+00 -1.52484e+01
       H -3.62394e+00 -2.62306e+00 -1.46140e+01
       O -7.17849e+00 -1.01783e+01 -1.99304e+01
       H -6.65894e+00 -9.40121e+00 -1.96564e+01
       H -6.62076e+00 -1.05552e+01 -2.06504e+01
       O -6.20980e-01 -2.13793e+01 -1.76560e+01
       H -3.97533e-01 -2.08022e+01 -1.84111e+01
       H -1.44470e+00 -2.18473e+01 -1.78742e+01
       O  2.08568e+01 -1.58463e+01 -8.53794e+00
       H  2.06693e+01 -1.58314e+01 -7.58736e+00
       H  2.00492e+01 -1.63740e+01 -8.82795e+00
       O -1.09506e+01 -5.80915e+00 -2.14901e+01
       H -1.18480e+01 -5.81036e+00 -2.12349e+01
       H -1.10175e+01 -5.91111e+00 -2.25248e+01
       O -2.28105e+01 -1.28398e+01 -1.29341e+01
       H -2.23943e+01 -1.19580e+01 -1.28930e+01
       H -2.26303e+01 -1.31891e+01 -1.20297e+01
       O -1.01259e+00 -1.30533e+01 -8.10371e+00
       H -1.13898e+00 -1.21100e+01 -8.33901e+00