4
# CELL(abcABC): 1000.00000  1000.00000  1000.00000    90.00000    90.00000    90.00000  Step:           0  Bead:       0 positions{angstrom}  cell{angstrom}
       O -3.16258e+00  1.06290e+00  3.49788e-01
       H -2.23140e+00  8.47685e-01  2.79948e-01
       H -3.14788e+00  2.00652e+00  4.22149e-01
       H -3.80580e+00  3.44380e-01  4.31240e-01
4
# CELL(abcABC): 1000.00000  1000.00000  1000.00000    90.00000    90.00000    90.00000  Step:           1  Bead:       0 positions{angstrom}  cell{angstrom}
       O -3.16086e+00  1.06307e+00  3.49281e-01
       H -2.24110e+00  8.40677e-01  2.83905e-01
       H -3.14800e+00  2.00734e+00  4.23075e-01
       H -3.82329e+00  3.47880e-01  4.34412e-01
4
# CELL(abcABC): 1000.00000  1000.00000  1000.00000    90.00000    90.00000    90.00000  Step:           2  Bead:       0 positions{angstrom}  cell{angstrom}
       O -3.15925e+00  1.06301e+00  3.48853e-01
       H -2.24966e+00  8.34029e-01  2.87705e-01
       H -3.14692e+00  2.01096e+00  4.23534e-01
       H -3.84137e+00  3.51895e-01  4.36943e-01
4
# CELL(abcABC): 1000.00000  1000.00000  1000.00000    90.00000    90.00000    90.00000  Step:           3  Bead:       0 positions{angstrom}  cell{angstrom}
       O -3.15772e+00  1.06282e+00  3.48450e-01
       H -2.25511e+00  8.26089e-01  2.92569e-01
       H -3.14638e+00  2.01795e+00  4.24158e-01
       H -3.86077e+00  3.55735e-01  4.37845e-01
4
# CELL(abcABC): 1000.00000  1000.00000  1000.00000    90.00000    90.00000    90.00000  Step:           4  Bead:       0 positions{angstrom}  cell{angstrom}
       O -3.15639e+00  1.06262e+00  3.48243e-01
       H -2.25741e+00  8.16660e-01  2.95622e-01
       H -3.14533e+00  2.02692e+00  4.23837e-01
       H -3.88054e+00  3.59468e-01  4.38398e-01
4
# CELL(abcABC): 1000.00000  1000.00000  1000.00000    90.00000    90.00000    90.00000  Step:           5  Bead:       0 positions{angstrom}  cell{angstrom}
       O -3.15519e+00  1.06231e+00  3.48203e-01
       H -2.25685e+00  8.06922e-01  2.97703e-01
       H -3.14487e+00  2.03721e+00  4.23988e-01
       H -3.90066e+00  3.63849e-01  4.36802e-01
4
# CELL(abcABC): 1000.00000  1000.00000  1000.00000    90.00000    90.00000    90.00000  Step:           6  Bead:       0 positions{angstrom}  cell{angstrom}
       O -3.15410e+00  1.06216e+00  3.48332e-01
       H -2.25280e+00  7.97232e-01  2.98174e-01
       H -3.14482e+00  2.04479e+00  4.22568e-01
       H -3.92207e+00  3.68331e-01  4.35705e-01
4
# CELL(abcABC): 1000.00000  1000.00000  1000.00000    90.00000    90.00000    90.00000  Step:           7  Bead:       0 positions{angstrom}  cell{angstrom}
       O -3.15325e+00  1.06203e+00  3.48398e-01
       H -2.24461e+00  7.87635e-01  2.99332e-01
       H -3.14456e+00  2.04996e+00  4.21364e-01
       H -3.94403e+00  3.74769e-01  4.34706e-01
4
# CELL(abcABC): 1000.00000  1000.00000  1000.00000    90.00000    90.00000    90.00000  Step:           8  Bead:       0 positions{angstrom}  cell{angstrom}
       O -3.15261e+00  1.06204e+00  3.48634e-01
       H -2.23397e+00  7.78607e-01  2.99337e-01
       H -3.14274e+00  2.05151e+00  4.18966e-01
       H -3.96656e+00  3.82096e-01  4.33347e-01
4
# CELL(abcABC): 1000.00000  1000.00000  1000.00000    90.00000    90.00000    90.00000  Step:           9  Bead:       0 positions{angstrom}  cell{angstrom}
       O -3.15208e+00  1.06224e+00  3.48841e-01
       H -2.22324e+00  7.69820e-01  3.00080e-01
       H -3.13917e+00  2.05025e+00  4.16673e-01
       H -3.98939e+00  3.89055e-01  4.31609e-01
4
# CELL(abcABC): 1000.00000  1000.00000  1000.00000    90.00000    90.00000    90.00000  Step:          10  Bead:       0 positions{angstrom}  cell{angstrom}
       O -3.15152e+00  1.06241e+00  3.49253e-01
       H -2.21364e+00  7.62580e-01  2.99762e-01
       H -3.13460e+00  2.04685e+00  4.13225e-01
       H -4.01239e+00  3.96883e-01  4.28836e-01
4
# CELL(abcABC): 1000.00000  1000.00000  1000.00000    90.00000    90.00000    90.00000  Step:          11  Bead:       0 positions{angstrom}  cell{angstrom}
       O -3.15088e+00  1.06260e+00  3.49877e-01
       H -2.20604e+00  7.58042e-01  2.97909e-01
       H -3.13041e+00  2.04070e+00  4.09013e-01
       H -4.03430e+00  4.04621e-01  4.25000e-01
4
# CELL(abcABC): 1000.00000  1000.00000  1000.00000    90.00000    90.00000    90.00000  Step:          12  Bead:       0 positions{angstrom}  cell{angstrom}
       O -3.15027e+00  1.06278e+00  3.50634e-01
       H -2.20006e+00  7.55632e-01  2.95563e-01
       H -3.12539e+00  2.03159e+00  4.03538e-01
       H -4.05500e+00  4.13303e-01  4.20802e-01
4
# CELL(abcABC): 1000.00000  1000.00000  1000.00000    90.00000    90.00000    90.00000  Step:          13  Bead:       0 positions{angstrom}  cell{angstrom}
       O -3.14961e+00  1.06283e+00  3.51416e-01
       H -2.19742e+00  7.56314e-01  2.93394e-01
       H -3.11816e+00  2.02171e+00  3.97919e-01
       H -4.07544e+00  4.21712e-01  4.16189e-01
4
# CELL(abcABC): 1000.00000  1000.00000  1000.00000    90.00000    90.00000    90.00000  Step:          14  Bead:       0 positions{angstrom}  cell{angstrom}
       O -3.14889e+00  1.06264e+00  3.52183e-01
       H -2.19691e+00  7.59220e-01  2.91702e-01
       H -3.10956e+00  2.01308e+00  3.92241e-01
       H -4.09595e+00  4.30491e-01  4.11373e-01
4
# CELL(abcABC): 1000.00000  1000.00000  1000.00000    90.00000    90.00000    90.00000  Step:          15  Bead:       0 positions{angstrom}  cell{angstrom}
       O -3.14800e+00  1.06205e+00  3.52737e-01
       H -2.20177e+00  7.63966e-01  2.92347e-01
       H -3.10077e+00  2.00680e+00  3.86835e-01
       H -4.11397e+00  4.41388e-01  4.07348e-01
4
# CELL(abcABC): 1000.00000  1000.00000  1000.00000    90.00000    90.00000    90.00000  Step:          16  Bead:       0 positions{angstrom}  cell{angstrom}
       O -3.14710e+00  1.06107e+00  3.53275e-01
       H -2.20831e+00  7.70284e-01  2.92895e-01
       H -3.09148e+00  2.00424e+00  3.81650e-01
       H -4.13108e+00  4.53121e-01  4.03449e-01
4
# CELL(abcABC): 1000.00000  1000.00000  1000.00000    90.00000    90.00000    90.00000  Step:          17  Bead:       0 positions{angstrom}  cell{angstrom}
       O -3.14609e+00  1.05980e+00  3.53783e-01
       H -2.21590e+00  7.78455e-01  2.93911e-01
       H -3.08271e+00  2.00522e+00  3.75698e-01
       H -4.14820e+00  4.64180e-01  4.00322e-01
4
# CELL(abcABC): 1000.00000  1000.00000  1000.00000    90.00000    90.00000    90.00000  Step:          18  Bead:       0 positions{angstrom}  cell{angstrom}
       O -3.14511e+00  1.05821e+00  3.54261e-01
       H -2.22504e+00  7.88189e-01  2.95316e-01
       H -3.07254e+00  2.00870e+00  3.69852e-01
       H -4.16488e+00  4.76125e-01  3.97168e-01
4
# CELL(abcABC): 1000.00000  1000.00000  1000.00000    90.00000    90.00000    90.00000  Step:          19  Bead:       0 positions{angstrom}  cell{angstrom}
       O -3.14435e+00  1.05656e+00  3.54699e-01
       H -2.23267e+00  7.97728e-01  2.97303e-01
       H -3.06306e+00  2.01327e+00  3.63509e-01
       H -4.17865e+00  4.88202e-01  3.94569e-01
4
# CELL(abcABC): 1000.00000  1000.00000  1000.00000    90.00000    90.00000    90.00000  Step:          20  Bead:       0 positions{angstrom}  cell{angstrom}
       O -3.14383e+00  1.05497e+00  3.55180e-01
       H -2.23758e+00  8.06886e-01  2.97908e-01
       H -3.05469e+00  2.01863e+00  3.57566e-01
       H -4.19045e+00  4.98995e-01  3.92267e-01
4
# CELL(abcABC): 1000.00000  1000.00000  1000.00000    90.00000    90.00000    90.00000  Step:          21  Bead:       0 positions{angstrom}  cell{angstrom}
       O -3.14368e+00  1.05350e+00  3.55730e-01
       H -2.23908e+00  8.14085e-01  2.97230e-01
       H -3.04507e+00  2.02424e+00  3.52742e-01
       H -4.20093e+00  5.09524e-01  3.89038e-01
4
# CELL(abcABC): 1000.00000  1000.00000  1000.00000    90.00000    90.00000    90.00000  Step:          22  Bead:       0 positions{angstrom}  cell{angstrom}
       O -3.14393e+00  1.05217e+00  3.56382e-01
       H -2.23729e+00  8.18523e-01  2.97317e-01
       H -3.03382e+00  2.02884e+00  3.46504e-01
       H -4.20996e+00  5.21509e-01  3.84845e-01
4
# CELL(abcABC): 1000.00000  1000.00000  1000.00000    90.00000    90.00000    90.00000  Step:          23  Bead:       0 positions{angstrom}  cell{angstrom}
       O -3.14455e+00  1.05113e+00  3.57229e-01
       H -2.23102e+00  8.21389e-01  2.96676e-01
       H -3.02229e+00  2.03187e+00  3.40869e-01
       H -4.21802e+00  5.32155e-01  3.77677e-01
4
# CELL(abcABC): 1000.00000  1000.00000  1000.00000    90.00000    90.00000    90.00000  Step:          24  Bead:       0 positions{angstrom}  cell{angstrom}
       O -3.14545e+00  1.05032e+00  3.58082e-01
       H -2.22071e+00  8.21182e-01  2.95862e-01
       H -3.01113e+00  2.03337e+00  3.35750e-01
       H -4.22518e+00  5.43741e-01  3.70064e-01
4
# CELL(abcABC): 1000.00000  1000.00000  1000.00000    90.00000    90.00000    90.00000  Step:          25  Bead:       0 positions{angstrom}  cell{angstrom}
       O -3.14646e+00  1.04993e+00  3.58824e-01
       H -2.20848e+00  8.18146e-01  2.95903e-01
       H -3.00125e+00  2.03127e+00  3.31152e-01
       H -4.23123e+00  5.55029e-01  3.62843e-01
4
# CELL(abcABC): 1000.00000  1000.00000  1000.00000    90.00000    90.00000    90.00000  Step:          26  Bead:       0 positions{angstrom}  cell{angstrom}
       O -3.14748e+00  1.04994e+00  3.59497e-01
       H -2.19603e+00  8.12956e-01  2.95458e-01
       H -2.99212e+00  2.02597e+00  3.26753e-01
       H -4.23660e+00  5.65345e-01  3.57006e-01
4
# CELL(abcABC): 1000.00000  1000.00000  1000.00000    90.00000    90.00000    90.00000  Step:          27  Bead:       0 positions{angstrom}  cell{angstrom}
       O -3.14851e+00  1.05020e+00  3.60133e-01
       H -2.18520e+00  8.07593e-01  2.94719e-01
       H -2.98409e+00  2.01737e+00  3.22454e-01
       H -4.23912e+00  5.75189e-01  3.51957e-01
4
# CELL(abcABC): 1000.00000  1000.00000  1000.00000    90.00000    90.00000    90.00000  Step:          28  Bead:       0 positions{angstrom}  cell{angstrom}
       O -3.14930e+00  1.05065e+00  3.60627e-01
       H -2.17823e+00  7.99886e-01  2.94321e-01
       H -2.97660e+00  2.00727e+00  3.18861e-01
       H -4.24097e+00  5.85806e-01  3.48098e-01
4
# CELL(abcABC): 1000.00000  1000.00000  1000.00000    90.00000    90.00000    90.00000  Step:          29  Bead:       0 positions{angstrom}  cell{angstrom}
       O -3.14989e+00  1.05116e+00  3.61049e-01
       H -2.17433e+00  7.91920e-01  2.93069e-01
       H -2.97113e+00  1.99662e+00  3.15703e-01
       H -4.24104e+00  5.96340e-01  3.45808e-01
4
# CELL(abcABC): 1000.00000  1000.00000  1000.00000    90.00000    90.00000    90.00000  Step:          30  Bead:       0 positions{angstrom}  cell{angstrom}
       O -3.15021e+00  1.05156e+00  3.61342e-01
       H -2.17440e+00  7.84570e-01  2.93192e-01
       H -2.96689e+00  1.98668e+00  3.13362e-01
       H -4.24008e+00  6.07362e-01  3.43377e-01
4
# CELL(abcABC): 1000.00000  1000.00000  1000.00000    90.00000    90.00000    90.00000  Step:          31  Bead:       0 positions{angstrom}  cell{angstrom}
       O -3.15041e+00  1.05174e+00  3.61600e-01
       H -2.17745e+00  7.77082e-01  2.94151e-01
       H -2.96288e+00  1.97990e+00  3.10735e-01
       H -4.23797e+00  6.18821e-01  3.40952e-01
4
# CELL(abcABC): 1000.00000  1000.00000  1000.00000    90.00000    90.00000    90.00000  Step:          32  Bead:       0 positions{angstrom}  cell{angstrom}
       O -3.15032e+00  1.05185e+00  3.61587e-01
       H -2.18590e+00  7.67421e-01  2.96379e-01
       H -2.95907e+00  1.97725e+00  3.09617e-01
       H -4.23464e+00  6.29372e-01  3.40055e-01
4
# CELL(abcABC): 1000.00000  1000.00000  1000.00000    90.00000    90.00000    90.00000  Step:          33  Bead:       0 positions{angstrom}  cell{angstrom}
       O -3.15001e+00  1.05192e+00  3.61378e-01
       H -2.19890e+00  7.56645e-01  3.00444e-01
       H -2.95556e+00  1.97675e+00  3.09275e-01
       H -4.23010e+00  6.39446e-01  3.39651e-01
4
# CELL(abcABC): 1000.00000  1000.00000  1000.00000    90.00000    90.00000    90.00000  Step:          34  Bead:       0 positions{angstrom}  cell{angstrom}
       O -3.14941e+00  1.05190e+00  3.61191e-01
       H -2.21458e+00  7.45023e-01  3.04832e-01
       H -2.95444e+00  1.97877e+00  3.09544e-01
       H -4.22505e+00  6.49400e-01  3.37956e-01
4
# CELL(abcABC): 1000.00000  1000.00000  1000.00000    90.00000    90.00000    90.00000  Step:          35  Bead:       0 positions{angstrom}  cell{angstrom}
       O -3.14878e+00  1.05176e+00  3.60949e-01
       H -2.23045e+00  7.32376e-01  3.08794e-01
       H -2.95507e+00  1.98433e+00  3.10762e-01
       H -4.21865e+00  6.58718e-01  3.36624e-01
4
# CELL(abcABC): 1000.00000  1000.00000  1000.00000    90.00000    90.00000    90.00000  Step:          36  Bead:       0 positions{angstrom}  cell{angstrom}
       O -3.14819e+00  1.05152e+00  3.60683e-01
       H -2.24665e+00  7.18546e-01  3.12372e-01
       H -2.95602e+00  1.99291e+00  3.11426e-01
       H -4.21081e+00  6.67697e-01  3.36598e-01
4
# CELL(abcABC): 1000.00000  1000.00000  1000.00000    90.00000    90.00000    90.00000  Step:          37  Bead:       0 positions{angstrom}  cell{angstrom}
       O -3.14777e+00  1.05143e+00  3.60275e-01
       H -2.26146e+00  7.04090e-01  3.17686e-01
       H -2.95686e+00  2.00135e+00  3.11885e-01
       H -4.20176e+00  6.75156e-01  3.37307e-01
4
# CELL(abcABC): 1000.00000  1000.00000  1000.00000    90.00000    90.00000    90.00000  Step:          38  Bead:       0 positions{angstrom}  cell{angstrom}
       O -3.14740e+00  1.05152e+00  3.60005e-01
       H -2.27531e+00  6.87774e-01  3.21679e-01
       H -2.95787e+00  2.00795e+00  3.12334e-01
       H -4.19289e+00  6.83523e-01  3.37150e-01
4
# CELL(abcABC): 1000.00000  1000.00000  1000.00000    90.00000    90.00000    90.00000  Step:          39  Bead:       0 positions{angstrom}  cell{angstrom}
       O -3.14746e+00  1.05197e+00  3.59608e-01
       H -2.28551e+00  6.69099e-01  3.25973e-01
       H -2.95847e+00  2.01169e+00  3.13954e-01
       H -4.18116e+00  6.91224e-01  3.37535e-01
4
# CELL(abcABC): 1000.00000  1000.00000  1000.00000    90.00000    90.00000    90.00000  Step:          40  Bead:       0 positions{angstrom}  cell{angstrom}
       O -3.14786e+00  1.05265e+00  3.59001e-01
       H -2.29251e+00  6.48962e-01  3.30997e-01
       H -2.95853e+00  2.01337e+00  3.17488e-01
       H -4.16770e+00  6.98912e-01  3.38615e-01
4
# CELL(abcABC): 1000.00000  1000.00000  1000.00000    90.00000    90.00000    90.00000  Step:          41  Bead:       0 positions{angstrom}  cell{angstrom}
       O -3.14855e+00  1.05355e+00  3.58311e-01
       H -2.29700e+00  6.28385e-01  3.35366e-01
       H -2.95744e+00  2.01301e+00  3.21636e-01
       H -4.15333e+00  7.05550e-01  3.41053e-01
4
# CELL(abcABC): 1000.00000  1000.00000  1000.00000    90.00000    90.00000    90.00000  Step:          42  Bead:       0 positions{angstrom}  cell{angstrom}
       O -3.14960e+00  1.05479e+00  3.57643e-01
       H -2.29799e+00  6.05411e-01  3.39176e-01
       H -2.95532e+00  2.01033e+00  3.26443e-01
       H -4.13778e+00  7.11561e-01  3.43037e-01
4
# CELL(abcABC): 1000.00000  1000.00000  1000.00000    90.00000    90.00000    90.00000  Step:          43  Bead:       0 positions{angstrom}  cell{angstrom}
       O -3.15081e+00  1.05609e+00  3.56964e-01
       H -2.29850e+00  5.83651e-01  3.42398e-01
       H -2.95205e+00  2.00698e+00  3.31755e-01
       H -4.12137e+00  7.16076e-01  3.45269e-01
4
# CELL(abcABC): 1000.00000  1000.00000  1000.00000    90.00000    90.00000    90.00000  Step:          44  Bead:       0 positions{angstrom}  cell{angstrom}
       O -3.15208e+00  1.05746e+00  3.56271e-01
       H -2.29931e+00  5.62551e-01  3.44750e-01
       H -2.94750e+00  2.00168e+00  3.36835e-01
       H -4.10492e+00  7.20773e-01  3.48849e-01
4
# CELL(abcABC): 1000.00000  1000.00000  1000.00000    90.00000    90.00000    90.00000  Step:          45  Bead:       0 positions{angstrom}  cell{angstrom}
       O -3.15327e+00  1.05878e+00  3.55632e-01
       H -2.30232e+00  5.43804e-01  3.46165e-01
       H -2.94086e+00  1.99490e+00  3.41294e-01
       H -4.08964e+00  7.25253e-01  3.53121e-01
4
# CELL(abcABC): 1000.00000  1000.00000  1000.00000    90.00000    90.00000    90.00000  Step:          46  Bead:       0 positions{angstrom}  cell{angstrom}
       O -3.15447e+00  1.05997e+00  3.55030e-01
       H -2.30782e+00  5.28577e-01  3.46845e-01
       H -2.93276e+00  1.98723e+00  3.45401e-01
       H -4.07324e+00  7.29349e-01  3.57878e-01
4
# CELL(abcABC): 1000.00000  1000.00000  1000.00000    90.00000    90.00000    90.00000  Step:          47  Bead:       0 positions{angstrom}  cell{angstrom}
       O -3.15558e+00  1.06079e+00  3.54568e-01
       H -2.31608e+00  5.16408e-01  3.47446e-01
       H -2.92279e+00  1.98060e+00  3.48686e-01
       H -4.05738e+00  7.35122e-01  3.61323e-01
4
# CELL(abcABC): 1000.00000  1000.00000  1000.00000    90.00000    90.00000    90.00000  Step:          48  Bead:       0 positions{angstrom}  cell{angstrom}
       O -3.15658e+00  1.06139e+00  3.54119e-01
       H -2.32671e+00  5.06661e-01  3.47990e-01
       H -2.91103e+00  1.97603e+00  3.51204e-01
       H -4.04251e+00  7.39933e-01  3.65394e-01
4
# CELL(abcABC): 1000.00000  1000.00000  1000.00000    90.00000    90.00000    90.00000  Step:          49  Bead:       0 positions{angstrom}  cell{angstrom}
       O -3.15755e+00  1.06166e+00  3.53584e-01
       H -2.33990e+00  4.99782e-01  3.48736e-01
       H -2.89631e+00  1.97288e+00  3.53746e-01
       H -4.02867e+00  7.45561e-01  3.70601e-01
4
# CELL(abcABC): 1000.00000  1000.00000  1000.00000    90.00000    90.00000    90.00000  Step:          50  Bead:       0 positions{angstrom}  cell{angstrom}
       O -3.15827e+00  1.06172e+00  3.53181e-01
       H -2.35557e+00  4.95960e-01  3.48788e-01
       H -2.88174e+00  1.97056e+00  3.56218e-01
       H -4.01616e+00  7.50803e-01  3.74478e-01
4
# CELL(abcABC): 1000.00000  1000.00000  1000.00000    90.00000    90.00000    90.00000  Step:          51  Bead:       0 positions{angstrom}  cell{angstrom}
       O -3.15894e+00  1.06154e+00  3.52830e-01
       H -2.37294e+00  4.93971e-01  3.47973e-01
       H -2.86620e+00  1.96980e+00  3.58328e-01
       H -4.00368e+00  7.56357e-01  3.78756e-01
4
# CELL(abcABC): 1000.00000  1000.00000  1000.00000    90.00000    90.00000    90.00000  Step:          52  Bead:       0 positions{angstrom}  cell{angstrom}
       O -3.15957e+00  1.06134e+00  3.52633e-01
       H -2.39092e+00  4.93057e-01  3.46725e-01
       H -2.85003e+00  1.96916e+00  3.59026e-01
       H -3.99191e+00  7.61170e-01  3.82419e-01
4
# CELL(abcABC): 1000.00000  1000.00000  1000.00000    90.00000    90.00000    90.00000  Step:          53  Bead:       0 positions{angstrom}  cell{angstrom}
       O -3.16024e+00  1.06110e+00  3.52452e-01
       H -2.40726e+00  4.92823e-01  3.44121e-01
       H -2.83369e+00  1.96999e+00  3.60041e-01
       H -3.98131e+00  7.64326e-01  3.86896e-01
4
# CELL(abcABC): 1000.00000  1000.00000  1000.00000    90.00000    90.00000    90.00000  Step:          54  Bead:       0 positions{angstrom}  cell{angstrom}
       O -3.16095e+00  1.06108e+00  3.52049e-01
       H -2.42128e+00  4.90697e-01  3.42176e-01
       H -2.81778e+00  1.97084e+00  3.61520e-01
       H -3.97194e+00  7.65969e-01  3.93745e-01
4
# CELL(abcABC): 1000.00000  1000.00000  1000.00000    90.00000    90.00000    90.00000  Step:          55  Bead:       0 positions{angstrom}  cell{angstrom}
       O -3.16179e+00  1.06131e+00  3.51647e-01
       H -2.43248e+00  4.86774e-01  3.40614e-01
       H -2.80220e+00  1.97037e+00  3.63376e-01
       H -3.96287e+00  7.66630e-01  3.99836e-01
4
# CELL(abcABC): 1000.00000  1000.00000  1000.00000    90.00000    90.00000    90.00000  Step:          56  Bead:       0 positions{angstrom}  cell{angstrom}
       O -3.16281e+00  1.06183e+00  3.51273e-01
       H -2.43748e+00  4.80564e-01  3.39294e-01
       H -2.78764e+00  1.96769e+00  3.63848e-01
       H -3.95627e+00  7.67335e-01  4.06626e-01
4
# CELL(abcABC): 1000.00000  1000.00000  1000.00000    90.00000    90.00000    90.00000  Step:          57  Bead:       0 positions{angstrom}  cell{angstrom}
       O -3.16389e+00  1.06263e+00  3.50878e-01
       H -2.43705e+00  4.72449e-01  3.38172e-01
       H -2.77525e+00  1.96238e+00  3.65029e-01
       H -3.95198e+00  7.68096e-01  4.12840e-01
4
# CELL(abcABC): 1000.00000  1000.00000  1000.00000    90.00000    90.00000    90.00000  Step:          58  Bead:       0 positions{angstrom}  cell{angstrom}
       O -3.16505e+00  1.06374e+00  3.50516e-01
       H -2.43255e+00  4.61748e-01  3.36612e-01
       H -2.76367e+00  1.95503e+00  3.66604e-01
       H -3.94971e+00  7.68503e-01  4.18573e-01
4
# CELL(abcABC): 1000.00000  1000.00000  1000.00000    90.00000    90.00000    90.00000  Step:          59  Bead:       0 positions{angstrom}  cell{angstrom}
       O -3.16618e+00  1.06497e+00  3.50072e-01
       H -2.42552e+00  4.50431e-01  3.34914e-01
       H -2.75289e+00  1.94656e+00  3.69590e-01
       H -3.94956e+00  7.68688e-01  4.24321e-01
4
# CELL(abcABC): 1000.00000  1000.00000  1000.00000    90.00000    90.00000    90.00000  Step:          60  Bead:       0 positions{angstrom}  cell{angstrom}
       O -3.16718e+00  1.06631e+00  3.49714e-01
       H -2.41946e+00  4.39258e-01  3.33096e-01
       H -2.74227e+00  1.93640e+00  3.70871e-01
       H -3.95030e+00  7.68802e-01  4.30543e-01
4
# CELL(abcABC): 1000.00000  1000.00000  1000.00000    90.00000    90.00000    90.00000  Step:          61  Bead:       0 positions{angstrom}  cell{angstrom}
       O -3.16805e+00  1.06762e+00  3.49426e-01
       H -2.41378e+00  4.29144e-01  3.30842e-01
       H -2.73110e+00  1.92565e+00  3.70745e-01
       H -3.95333e+00  7.68800e-01  4.37488e-01
4
# CELL(abcABC): 1000.00000  1000.00000  1000.00000    90.00000    90.00000    90.00000  Step:          62  Bead:       0 positions{angstrom}  cell{angstrom}
       O -3.16856e+00  1.06886e+00  3.49316e-01
       H -2.41130e+00  4.20680e-01  3.27973e-01
       H -2.72158e+00  1.91476e+00  3.69984e-01
       H -3.95721e+00  7.68613e-01  4.42865e-01
4
# CELL(abcABC): 1000.00000  1000.00000  1000.00000    90.00000    90.00000    90.00000  Step:          63  Bead:       0 positions{angstrom}  cell{angstrom}
       O -3.16870e+00  1.06972e+00  3.49099e-01
       H -2.41166e+00  4.16286e-01  3.25422e-01
       H -2.71262e+00  1.90426e+00  3.68910e-01
       H -3.96358e+00  7.69827e-01  4.49936e-01
4
# CELL(abcABC): 1000.00000  1000.00000  1000.00000    90.00000    90.00000    90.00000  Step:          64  Bead:       0 positions{angstrom}  cell{angstrom}
       O -3.16856e+00  1.07024e+00  3.48888e-01
       H -2.41427e+00  4.15522e-01  3.23709e-01
       H -2.70331e+00  1.89541e+00  3.67716e-01
       H -3.97256e+00  7.71136e-01  4.56191e-01
4
# CELL(abcABC): 1000.00000  1000.00000  1000.00000    90.00000    90.00000    90.00000  Step:          65  Bead:       0 positions{angstrom}  cell{angstrom}
       O -3.16812e+00  1.07033e+00  3.48748e-01
       H -2.42112e+00  4.18649e-01  3.20741e-01
       H -2.69316e+00  1.89026e+00  3.66211e-01
       H -3.98284e+00  7.71684e-01  4.62891e-01
4
# CELL(abcABC): 1000.00000  1000.00000  1000.00000    90.00000    90.00000    90.00000  Step:          66  Bead:       0 positions{angstrom}  cell{angstrom}
       O -3.16743e+00  1.06998e+00  3.48566e-01
       H -2.43105e+00  4.27125e-01  3.18253e-01
       H -2.68277e+00  1.88614e+00  3.64861e-01
       H -3.99422e+00  7.72926e-01  4.69626e-01
4
# CELL(abcABC): 1000.00000  1000.00000  1000.00000    90.00000    90.00000    90.00000  Step:          67  Bead:       0 positions{angstrom}  cell{angstrom}
       O -3.16648e+00  1.06943e+00  3.48433e-01
       H -2.44263e+00  4.36487e-01  3.14681e-01
       H -2.67193e+00  1.88454e+00  3.63871e-01
       H -4.00868e+00  7.73875e-01  4.76293e-01
4
# CELL(abcABC): 1000.00000  1000.00000  1000.00000    90.00000    90.00000    90.00000  Step:          68  Bead:       0 positions{angstrom}  cell{angstrom}
       O -3.16542e+00  1.06868e+00  3.48508e-01
       H -2.45410e+00  4.45891e-01  3.10436e-01
       H -2.66115e+00  1.88505e+00  3.61120e-01
       H -4.02476e+00  7.75845e-01  4.82104e-01
4
# CELL(abcABC): 1000.00000  1000.00000  1000.00000    90.00000    90.00000    90.00000  Step:          69  Bead:       0 positions{angstrom}  cell{angstrom}
       O -3.16425e+00  1.06804e+00  3.48474e-01
       H -2.46484e+00  4.52397e-01  3.07328e-01
       H -2.65189e+00  1.88707e+00  3.59074e-01
       H -4.04179e+00  7.77559e-01  4.87787e-01
4
# CELL(abcABC): 1000.00000  1000.00000  1000.00000    90.00000    90.00000    90.00000  Step:          70  Bead:       0 positions{angstrom}  cell{angstrom}
       O -3.16328e+00  1.06738e+00  3.48527e-01
       H -2.47257e+00  4.56543e-01  3.02685e-01
       H -2.64365e+00  1.89065e+00  3.56524e-01
       H -4.05777e+00  7.80229e-01  4.94142e-01
4
# CELL(abcABC): 1000.00000  1000.00000  1000.00000    90.00000    90.00000    90.00000  Step:          71  Bead:       0 positions{angstrom}  cell{angstrom}
       O -3.16235e+00  1.06705e+00  3.48739e-01
       H -2.47718e+00  4.55424e-01  2.95933e-01
       H -2.63750e+00  1.89376e+00  3.53295e-01
       H -4.07400e+00  7.83535e-01  5.00761e-01
4
# CELL(abcABC): 1000.00000  1000.00000  1000.00000    90.00000    90.00000    90.00000  Step:          72  Bead:       0 positions{angstrom}  cell{angstrom}
       O -3.16159e+00  1.06692e+00  3.48996e-01
       H -2.47720e+00  4.49930e-01  2.88667e-01
       H -2.63306e+00  1.89655e+00  3.50591e-01
       H -4.09055e+00  7.88331e-01  5.06649e-01
4
# CELL(abcABC): 1000.00000  1000.00000  1000.00000    90.00000    90.00000    90.00000  Step:          73  Bead:       0 positions{angstrom}  cell{angstrom}
       O -3.16088e+00  1.06712e+00  3.49416e-01
       H -2.47351e+00  4.39997e-01  2.80466e-01
       H -2.63072e+00  1.89880e+00  3.47728e-01
       H -4.10779e+00  7.92830e-01  5.11054e-01
4
# CELL(abcABC): 1000.00000  1000.00000  1000.00000    90.00000    90.00000    90.00000  Step:          74  Bead:       0 positions{angstrom}  cell{angstrom}
       O -3.16025e+00  1.06750e+00  3.50079e-01
       H -2.46674e+00  4.26952e-01  2.70280e-01
       H -2.63052e+00  1.89989e+00  3.43556e-01
       H -4.12485e+00  7.98658e-01  5.14883e-01
4
# CELL(abcABC): 1000.00000  1000.00000  1000.00000    90.00000    90.00000    90.00000  Step:          75  Bead:       0 positions{angstrom}  cell{angstrom}
       O -3.15941e+00  1.06807e+00  3.50815e-01
       H -2.45920e+00  4.11282e-01  2.59044e-01
       H -2.63296e+00  1.89914e+00  3.40046e-01
       H -4.14325e+00  8.06064e-01  5.17947e-01
4
# CELL(abcABC): 1000.00000  1000.00000  1000.00000    90.00000    90.00000    90.00000  Step:          76  Bead:       0 positions{angstrom}  cell{angstrom}
       O -3.15854e+00  1.06853e+00  3.51477e-01
       H -2.45112e+00  3.95924e-01  2.48657e-01
       H -2.63728e+00  1.89740e+00  3.36584e-01
       H -4.16085e+00  8.15830e-01  5.21278e-01
4
# CELL(abcABC): 1000.00000  1000.00000  1000.00000    90.00000    90.00000    90.00000  Step:          77  Bead:       0 positions{angstrom}  cell{angstrom}
       O -3.15741e+00  1.06886e+00  3.52130e-01
       H -2.44475e+00  3.83101e-01  2.38340e-01
       H -2.64337e+00  1.89526e+00  3.33729e-01
       H -4.17898e+00  8.25612e-01  5.24096e-01
4
# CELL(abcABC): 1000.00000  1000.00000  1000.00000    90.00000    90.00000    90.00000  Step:          78  Bead:       0 positions{angstrom}  cell{angstrom}
       O -3.15604e+00  1.06899e+00  3.52953e-01
       H -2.44215e+00  3.72422e-01  2.27404e-01
       H -2.64937e+00  1.89355e+00  3.30640e-01
       H -4.19733e+00  8.35991e-01  5.25061e-01
4
# CELL(abcABC): 1000.00000  1000.00000  1000.00000    90.00000    90.00000    90.00000  Step:          79  Bead:       0 positions{angstrom}  cell{angstrom}
       O -3.15455e+00  1.06893e+00  3.53734e-01
       H -2.44333e+00  3.65899e-01  2.18267e-01
       H -2.65419e+00  1.89122e+00  3.27375e-01
       H -4.21494e+00  8.45784e-01  5.25052e-01
4
# CELL(abcABC): 1000.00000  1000.00000  1000.00000    90.00000    90.00000    90.00000  Step:          80  Bead:       0 positions{angstrom}  cell{angstrom}
       O -3.15302e+00  1.06856e+00  3.54388e-01
       H -2.44740e+00  3.63660e-01  2.09820e-01
       H -2.65809e+00  1.88928e+00  3.25191e-01
       H -4.23134e+00  8.55820e-01  5.25306e-01
4
# CELL(abcABC): 1000.00000  1000.00000  1000.00000    90.00000    90.00000    90.00000  Step:          81  Bead:       0 positions{angstrom}  cell{angstrom}
       O -3.15146e+00  1.06771e+00  3.55076e-01
       H -2.45241e+00  3.66284e-01  2.01507e-01
       H -2.66154e+00  1.89021e+00  3.23243e-01
       H -4.24758e+00  8.65721e-01  5.24652e-01
4
# CELL(abcABC): 1000.00000  1000.00000  1000.00000    90.00000    90.00000    90.00000  Step:          82  Bead:       0 positions{angstrom}  cell{angstrom}
       O -3.14987e+00  1.06668e+00  3.55635e-01
       H -2.45925e+00  3.71959e-01  1.94715e-01
       H -2.66341e+00  1.89099e+00  3.21297e-01
       H -4.26414e+00  8.75575e-01  5.24513e-01
4
# CELL(abcABC): 1000.00000  1000.00000  1000.00000    90.00000    90.00000    90.00000  Step:          83  Bead:       0 positions{angstrom}  cell{angstrom}
       O -3.14835e+00  1.06533e+00  3.56164e-01
       H -2.46780e+00  3.80986e-01  1.89025e-01
       H -2.66396e+00  1.89313e+00  3.19435e-01
       H -4.27927e+00  8.85900e-01  5.23673e-01
4
# CELL(abcABC): 1000.00000  1000.00000  1000.00000    90.00000    90.00000    90.00000  Step:          84  Bead:       0 positions{angstrom}  cell{angstrom}
       O -3.14690e+00  1.06381e+00  3.56702e-01
       H -2.47593e+00  3.91103e-01  1.82793e-01
       H -2.66430e+00  1.89614e+00  3.17549e-01
       H -4.29380e+00  8.96894e-01  5.23253e-01
4
# CELL(abcABC): 1000.00000  1000.00000  1000.00000    90.00000    90.00000    90.00000  Step:          85  Bead:       0 positions{angstrom}  cell{angstrom}