4
# CELL(abcABC): 1000.00000  1000.00000  1000.00000    90.00000    90.00000    90.00000  Step:           0  Bead:       0 positions{angstrom}  cell{angstrom}
       O -3.11963e+00  1.06518e+00  3.49007e-01
       H -3.12173e+00  7.00972e-01  1.24785e+00
       H -3.30243e+00  4.03994e-01 -2.80062e-01
       H -3.44275e+00  2.05793e+00  1.77962e-01
4
# CELL(abcABC): 1000.00000  1000.00000  1000.00000    90.00000    90.00000    90.00000  Step:           1  Bead:       0 positions{angstrom}  cell{angstrom}
       O -3.11795e+00  1.06567e+00  3.48580e-01
       H -3.13150e+00  6.94034e-01  1.25204e+00
       H -3.30270e+00  4.01456e-01 -2.81089e-01
       H -3.45933e+00  2.05961e+00  1.81578e-01
4
# CELL(abcABC): 1000.00000  1000.00000  1000.00000    90.00000    90.00000    90.00000  Step:           2  Bead:       0 positions{angstrom}  cell{angstrom}
       O -3.11638e+00  1.06652e+00  3.48411e-01
       H -3.14160e+00  6.88151e-01  1.25588e+00
       H -3.30219e+00  3.95541e-01 -2.86164e-01
       H -3.47473e+00  2.05787e+00  1.85493e-01
4
# CELL(abcABC): 1000.00000  1000.00000  1000.00000    90.00000    90.00000    90.00000  Step:           3  Bead:       0 positions{angstrom}  cell{angstrom}
       O -3.11480e+00  1.06773e+00  3.48423e-01
       H -3.15132e+00  6.82203e-01  1.26003e+00
       H -3.30256e+00  3.88365e-01 -2.93746e-01
       H -3.48974e+00  2.05189e+00  1.88733e-01
4
# CELL(abcABC): 1000.00000  1000.00000  1000.00000    90.00000    90.00000    90.00000  Step:           4  Bead:       0 positions{angstrom}  cell{angstrom}
       O -3.11329e+00  1.06920e+00  3.48748e-01
       H -3.16140e+00  6.76407e-01  1.26102e+00
       H -3.30264e+00  3.80773e-01 -3.03739e-01
       H -3.50357e+00  2.04186e+00  1.92581e-01
4
# CELL(abcABC): 1000.00000  1000.00000  1000.00000    90.00000    90.00000    90.00000  Step:           5  Bead:       0 positions{angstrom}  cell{angstrom}
       O -3.11174e+00  1.07068e+00  3.49298e-01
       H -3.17237e+00  6.72087e-01  1.25933e+00
       H -3.30340e+00  3.74655e-01 -3.13404e-01
       H -3.51639e+00  2.02886e+00  1.95209e-01
4
# CELL(abcABC): 1000.00000  1000.00000  1000.00000    90.00000    90.00000    90.00000  Step:           6  Bead:       0 positions{angstrom}  cell{angstrom}
       O -3.11015e+00  1.07225e+00  3.50008e-01
       H -3.18335e+00  6.69485e-01  1.25428e+00
       H -3.30455e+00  3.68397e-01 -3.23649e-01
       H -3.52941e+00  2.01281e+00  1.99220e-01
4
# CELL(abcABC): 1000.00000  1000.00000  1000.00000    90.00000    90.00000    90.00000  Step:           7  Bead:       0 positions{angstrom}  cell{angstrom}
       O -3.10869e+00  1.07364e+00  3.50571e-01
       H -3.19293e+00  6.68207e-01  1.24843e+00
       H -3.30537e+00  3.64231e-01 -3.31632e-01
       H -3.54221e+00  1.99617e+00  2.04124e-01
4
# CELL(abcABC): 1000.00000  1000.00000  1000.00000    90.00000    90.00000    90.00000  Step:           8  Bead:       0 positions{angstrom}  cell{angstrom}
       O -3.10740e+00  1.07488e+00  3.51160e-01
       H -3.20152e+00  6.68068e-01  1.24027e+00
       H -3.30447e+00  3.62218e-01 -3.38040e-01
       H -3.55514e+00  1.97857e+00  2.09354e-01
4
# CELL(abcABC): 1000.00000  1000.00000  1000.00000    90.00000    90.00000    90.00000  Step:           9  Bead:       0 positions{angstrom}  cell{angstrom}
       O -3.10621e+00  1.07600e+00  3.51518e-01
       H -3.20997e+00  6.67887e-01  1.23229e+00
       H -3.30163e+00  3.63761e-01 -3.41140e-01
       H -3.56831e+00  1.95947e+00  2.14754e-01
4
# CELL(abcABC): 1000.00000  1000.00000  1000.00000    90.00000    90.00000    90.00000  Step:          10  Bead:       0 positions{angstrom}  cell{angstrom}
       O -3.10509e+00  1.07680e+00  3.51849e-01
       H -3.21809e+00  6.68161e-01  1.22326e+00
       H -3.29763e+00  3.69382e-01 -3.42138e-01
       H -3.58204e+00  1.94090e+00  2.19511e-01
4
# CELL(abcABC): 1000.00000  1000.00000  1000.00000    90.00000    90.00000    90.00000  Step:          11  Bead:       0 positions{angstrom}  cell{angstrom}
       O -3.10399e+00  1.07735e+00  3.52143e-01
       H -3.22568e+00  6.69260e-01  1.21344e+00
       H -3.29393e+00  3.77798e-01 -3.40910e-01
       H -3.59551e+00  1.92266e+00  2.23440e-01
4
# CELL(abcABC): 1000.00000  1000.00000  1000.00000    90.00000    90.00000    90.00000  Step:          12  Bead:       0 positions{angstrom}  cell{angstrom}
       O -3.10305e+00  1.07772e+00  3.52309e-01
       H -3.23163e+00  6.69871e-01  1.20475e+00
       H -3.28944e+00  3.87508e-01 -3.38496e-01
       H -3.60902e+00  1.90650e+00  2.27086e-01
4
# CELL(abcABC): 1000.00000  1000.00000  1000.00000    90.00000    90.00000    90.00000  Step:          13  Bead:       0 positions{angstrom}  cell{angstrom}
       O -3.10218e+00  1.07790e+00  3.52243e-01
       H -3.23717e+00  6.70375e-01  1.19864e+00
       H -3.28290e+00  3.98864e-01 -3.34512e-01
       H -3.62389e+00  1.89176e+00  2.30252e-01
4
# CELL(abcABC): 1000.00000  1000.00000  1000.00000    90.00000    90.00000    90.00000  Step:          14  Bead:       0 positions{angstrom}  cell{angstrom}
       O -3.10135e+00  1.07791e+00  3.51947e-01
       H -3.24101e+00  6.69640e-01  1.19592e+00
       H -3.27530e+00  4.11650e-01 -3.29867e-01
       H -3.64074e+00  1.87948e+00  2.33027e-01
4
# CELL(abcABC): 1000.00000  1000.00000  1000.00000    90.00000    90.00000    90.00000  Step:          15  Bead:       0 positions{angstrom}  cell{angstrom}
       O -3.10044e+00  1.07774e+00  3.51296e-01
       H -3.24647e+00  6.67356e-01  1.19852e+00
       H -3.26800e+00  4.24630e-01 -3.25433e-01
       H -3.65710e+00  1.87149e+00  2.36329e-01
4
# CELL(abcABC): 1000.00000  1000.00000  1000.00000    90.00000    90.00000    90.00000  Step:          16  Bead:       0 positions{angstrom}  cell{angstrom}
       O -3.09954e+00  1.07750e+00  3.50612e-01
       H -3.25046e+00  6.63902e-01  1.20337e+00
       H -3.26088e+00  4.37110e-01 -3.22559e-01
       H -3.67448e+00  1.86637e+00  2.39465e-01
4
# CELL(abcABC): 1000.00000  1000.00000  1000.00000    90.00000    90.00000    90.00000  Step:          17  Bead:       0 positions{angstrom}  cell{angstrom}
       O -3.09853e+00  1.07732e+00  3.50014e-01
       H -3.25316e+00  6.60442e-01  1.21015e+00
       H -3.25511e+00  4.47492e-01 -3.23472e-01
       H -3.69351e+00  1.86224e+00  2.43086e-01
4
# CELL(abcABC): 1000.00000  1000.00000  1000.00000    90.00000    90.00000    90.00000  Step:          18  Bead:       0 positions{angstrom}  cell{angstrom}
       O -3.09750e+00  1.07720e+00  3.49615e-01
       H -3.25615e+00  6.57705e-01  1.21778e+00
       H -3.24875e+00  4.54266e-01 -3.28094e-01
       H -3.71335e+00  1.86019e+00  2.46425e-01
4
# CELL(abcABC): 1000.00000  1000.00000  1000.00000    90.00000    90.00000    90.00000  Step:          19  Bead:       0 positions{angstrom}  cell{angstrom}
       O -3.09659e+00  1.07730e+00  3.49474e-01
       H -3.25780e+00  6.55066e-01  1.22549e+00
       H -3.24372e+00  4.56524e-01 -3.37244e-01
       H -3.73107e+00  1.85892e+00  2.50088e-01
4
# CELL(abcABC): 1000.00000  1000.00000  1000.00000    90.00000    90.00000    90.00000  Step:          20  Bead:       0 positions{angstrom}  cell{angstrom}
       O -3.09578e+00  1.07763e+00  3.49695e-01
       H -3.25825e+00  6.53370e-01  1.23045e+00
       H -3.24006e+00  4.55318e-01 -3.49452e-01
       H -3.74717e+00  1.85657e+00  2.53832e-01
4
# CELL(abcABC): 1000.00000  1000.00000  1000.00000    90.00000    90.00000    90.00000  Step:          21  Bead:       0 positions{angstrom}  cell{angstrom}
       O -3.09520e+00  1.07811e+00  3.50264e-01
       H -3.25791e+00  6.51769e-01  1.23226e+00
       H -3.23494e+00  4.51995e-01 -3.62888e-01
       H -3.76192e+00  1.85386e+00  2.56427e-01
4
# CELL(abcABC): 1000.00000  1000.00000  1000.00000    90.00000    90.00000    90.00000  Step:          22  Bead:       0 positions{angstrom}  cell{angstrom}
       O -3.09488e+00  1.07863e+00  3.51148e-01
       H -3.25743e+00  6.49877e-01  1.23275e+00
       H -3.22745e+00  4.47315e-01 -3.78816e-01
       H -3.77488e+00  1.85227e+00  2.57828e-01
4
# CELL(abcABC): 1000.00000  1000.00000  1000.00000    90.00000    90.00000    90.00000  Step:          23  Bead:       0 positions{angstrom}  cell{angstrom}
       O -3.09485e+00  1.07919e+00  3.52360e-01
       H -3.25559e+00  6.49055e-01  1.23032e+00
       H -3.21843e+00  4.42704e-01 -3.93808e-01
       H -3.78622e+00  1.84880e+00  2.56012e-01
4
# CELL(abcABC): 1000.00000  1000.00000  1000.00000    90.00000    90.00000    90.00000  Step:          24  Bead:       0 positions{angstrom}  cell{angstrom}
       O -3.09513e+00  1.07966e+00  3.53623e-01
       H -3.25202e+00  6.47622e-01  1.22569e+00
       H -3.20807e+00  4.39751e-01 -4.06729e-01
       H -3.79577e+00  1.84562e+00  2.53511e-01
4
# CELL(abcABC): 1000.00000  1000.00000  1000.00000    90.00000    90.00000    90.00000  Step:          25  Bead:       0 positions{angstrom}  cell{angstrom}
       O -3.09565e+00  1.08022e+00  3.54741e-01
       H -3.24751e+00  6.45350e-01  1.22023e+00
       H -3.19694e+00  4.37471e-01 -4.16670e-01
       H -3.80311e+00  1.84140e+00  2.51175e-01
4
# CELL(abcABC): 1000.00000  1000.00000  1000.00000    90.00000    90.00000    90.00000  Step:          26  Bead:       0 positions{angstrom}  cell{angstrom}
       O -3.09644e+00  1.08083e+00  3.55691e-01
       H -3.24212e+00  6.42337e-01  1.21296e+00
       H -3.18432e+00  4.36730e-01 -4.23314e-01
       H -3.80856e+00  1.83545e+00  2.50002e-01
4
# CELL(abcABC): 1000.00000  1000.00000  1000.00000    90.00000    90.00000    90.00000  Step:          27  Bead:       0 positions{angstrom}  cell{angstrom}
       O -3.09760e+00  1.08139e+00  3.56449e-01
       H -3.23616e+00  6.39898e-01  1.20464e+00
       H -3.17050e+00  4.37272e-01 -4.26406e-01
       H -3.80996e+00  1.82837e+00  2.49382e-01
4
# CELL(abcABC): 1000.00000  1000.00000  1000.00000    90.00000    90.00000    90.00000  Step:          28  Bead:       0 positions{angstrom}  cell{angstrom}
       O -3.09894e+00  1.08193e+00  3.56866e-01
       H -3.23067e+00  6.35193e-01  1.19659e+00
       H -3.15498e+00  4.40182e-01 -4.25251e-01
       H -3.80967e+00  1.82161e+00  2.49661e-01
4
# CELL(abcABC): 1000.00000  1000.00000  1000.00000    90.00000    90.00000    90.00000  Step:          29  Bead:       0 positions{angstrom}  cell{angstrom}
       O -3.10052e+00  1.08240e+00  3.56993e-01
       H -3.22399e+00  6.29796e-01  1.18820e+00
       H -3.13945e+00  4.45187e-01 -4.20372e-01
       H -3.80685e+00  1.81457e+00  2.51154e-01
4
# CELL(abcABC): 1000.00000  1000.00000  1000.00000    90.00000    90.00000    90.00000  Step:          30  Bead:       0 positions{angstrom}  cell{angstrom}
       O -3.10226e+00  1.08273e+00  3.56776e-01
       H -3.21653e+00  6.24138e-01  1.18233e+00
       H -3.12339e+00  4.51975e-01 -4.11960e-01
       H -3.80265e+00  1.80819e+00  2.52064e-01
4
# CELL(abcABC): 1000.00000  1000.00000  1000.00000    90.00000    90.00000    90.00000  Step:          31  Bead:       0 positions{angstrom}  cell{angstrom}
       O -3.10427e+00  1.08292e+00  3.56349e-01
       H -3.20717e+00  6.17293e-01  1.17878e+00
       H -3.10612e+00  4.61146e-01 -4.02026e-01
       H -3.79742e+00  1.80282e+00  2.52447e-01
4
# CELL(abcABC): 1000.00000  1000.00000  1000.00000    90.00000    90.00000    90.00000  Step:          32  Bead:       0 positions{angstrom}  cell{angstrom}
       O -3.10634e+00  1.08320e+00  3.55555e-01
       H -3.19842e+00  6.07300e-01  1.17805e+00
       H -3.08788e+00  4.72039e-01 -3.89992e-01
       H -3.79162e+00  1.79755e+00  2.53749e-01
4
# CELL(abcABC): 1000.00000  1000.00000  1000.00000    90.00000    90.00000    90.00000  Step:          33  Bead:       0 positions{angstrom}  cell{angstrom}
       O -3.10843e+00  1.08361e+00  3.54604e-01
       H -3.18993e+00  5.95693e-01  1.18026e+00
       H -3.06892e+00  4.81307e-01 -3.78215e-01
       H -3.78583e+00  1.79332e+00  2.54854e-01
4
# CELL(abcABC): 1000.00000  1000.00000  1000.00000    90.00000    90.00000    90.00000  Step:          34  Bead:       0 positions{angstrom}  cell{angstrom}
       O -3.11039e+00  1.08408e+00  3.53872e-01
       H -3.18071e+00  5.83574e-01  1.18312e+00
       H -3.05143e+00  4.88333e-01 -3.68496e-01
       H -3.78137e+00  1.79099e+00  2.53900e-01
4
# CELL(abcABC): 1000.00000  1000.00000  1000.00000    90.00000    90.00000    90.00000  Step:          35  Bead:       0 positions{angstrom}  cell{angstrom}
       O -3.11237e+00  1.08453e+00  3.53419e-01
       H -3.16952e+00  5.71700e-01  1.18508e+00
       H -3.03477e+00  4.93652e-01 -3.61868e-01
       H -3.77792e+00  1.79042e+00  2.52507e-01
4
# CELL(abcABC): 1000.00000  1000.00000  1000.00000    90.00000    90.00000    90.00000  Step:          36  Bead:       0 positions{angstrom}  cell{angstrom}
       O -3.11432e+00  1.08489e+00  3.53375e-01
       H -3.15790e+00  5.60762e-01  1.18559e+00
       H -3.01751e+00  4.97091e-01 -3.60803e-01
       H -3.77572e+00  1.79215e+00  2.51620e-01
4
# CELL(abcABC): 1000.00000  1000.00000  1000.00000    90.00000    90.00000    90.00000  Step:          37  Bead:       0 positions{angstrom}  cell{angstrom}
       O -3.11629e+00  1.08527e+00  3.53658e-01
       H -3.14555e+00  5.52026e-01  1.18639e+00
       H -2.99921e+00  4.96820e-01 -3.65164e-01
       H -3.77524e+00  1.79511e+00  2.50704e-01
4
# CELL(abcABC): 1000.00000  1000.00000  1000.00000    90.00000    90.00000    90.00000  Step:          38  Bead:       0 positions{angstrom}  cell{angstrom}
       O -3.11802e+00  1.08555e+00  3.54517e-01
       H -3.13422e+00  5.44836e-01  1.18411e+00
       H -2.98031e+00  4.93066e-01 -3.74033e-01
       H -3.77789e+00  1.80168e+00  2.48215e-01
4
# CELL(abcABC): 1000.00000  1000.00000  1000.00000    90.00000    90.00000    90.00000  Step:          39  Bead:       0 positions{angstrom}  cell{angstrom}
       O -3.11986e+00  1.08578e+00  3.55587e-01
       H -3.12231e+00  5.38970e-01  1.18043e+00
       H -2.96062e+00  4.87011e-01 -3.84794e-01
       H -3.78035e+00  1.80987e+00  2.45672e-01
4
# CELL(abcABC): 1000.00000  1000.00000  1000.00000    90.00000    90.00000    90.00000  Step:          40  Bead:       0 positions{angstrom}  cell{angstrom}
       O -3.12167e+00  1.08575e+00  3.56658e-01
       H -3.11066e+00  5.35206e-01  1.17596e+00
       H -2.94056e+00  4.81369e-01 -3.95023e-01
       H -3.78337e+00  1.81984e+00  2.43361e-01
4
# CELL(abcABC): 1000.00000  1000.00000  1000.00000    90.00000    90.00000    90.00000  Step:          41  Bead:       0 positions{angstrom}  cell{angstrom}
       O -3.12340e+00  1.08542e+00  3.57734e-01
       H -3.09972e+00  5.34065e-01  1.16965e+00
       H -2.92014e+00  4.77599e-01 -4.04525e-01
       H -3.78726e+00  1.82998e+00  2.42098e-01
4
# CELL(abcABC): 1000.00000  1000.00000  1000.00000    90.00000    90.00000    90.00000  Step:          42  Bead:       0 positions{angstrom}  cell{angstrom}
       O -3.12517e+00  1.08495e+00  3.58793e-01
       H -3.08781e+00  5.32668e-01  1.16219e+00
       H -2.90005e+00  4.76343e-01 -4.12010e-01
       H -3.79117e+00  1.84007e+00  2.40231e-01
4
# CELL(abcABC): 1000.00000  1000.00000  1000.00000    90.00000    90.00000    90.00000  Step:          43  Bead:       0 positions{angstrom}  cell{angstrom}
       O -3.12685e+00  1.08416e+00  3.59693e-01
       H -3.07671e+00  5.33329e-01  1.15422e+00
       H -2.88076e+00  4.79594e-01 -4.16717e-01
       H -3.79486e+00  1.84864e+00  2.38627e-01
4
# CELL(abcABC): 1000.00000  1000.00000  1000.00000    90.00000    90.00000    90.00000  Step:          44  Bead:       0 positions{angstrom}  cell{angstrom}
       O -3.12844e+00  1.08320e+00  3.60333e-01
       H -3.06594e+00  5.34068e-01  1.14629e+00
       H -2.86255e+00  4.85967e-01 -4.18863e-01
       H -3.79861e+00  1.85682e+00  2.38546e-01
4
# CELL(abcABC): 1000.00000  1000.00000  1000.00000    90.00000    90.00000    90.00000  Step:          45  Bead:       0 positions{angstrom}  cell{angstrom}
       O -3.12987e+00  1.08210e+00  3.60708e-01
       H -3.05623e+00  5.35186e-01  1.13916e+00
       H -2.84501e+00  4.95351e-01 -4.18613e-01
       H -3.80311e+00  1.86372e+00  2.39469e-01
4
# CELL(abcABC): 1000.00000  1000.00000  1000.00000    90.00000    90.00000    90.00000  Step:          46  Bead:       0 positions{angstrom}  cell{angstrom}
       O -3.13130e+00  1.08093e+00  3.60747e-01
       H -3.04705e+00  5.36686e-01  1.13384e+00
       H -2.82904e+00  5.07417e-01 -4.15737e-01
       H -3.80560e+00  1.86871e+00  2.41299e-01
4
# CELL(abcABC): 1000.00000  1000.00000  1000.00000    90.00000    90.00000    90.00000  Step:          47  Bead:       0 positions{angstrom}  cell{angstrom}
       O -3.13267e+00  1.07961e+00  3.60528e-01
       H -3.03816e+00  5.37306e-01  1.13157e+00
       H -2.81437e+00  5.22928e-01 -4.11020e-01
       H -3.80735e+00  1.87358e+00  2.42313e-01
4
# CELL(abcABC): 1000.00000  1000.00000  1000.00000    90.00000    90.00000    90.00000  Step:          48  Bead:       0 positions{angstrom}  cell{angstrom}
       O -3.13402e+00  1.07838e+00  3.59945e-01
       H -3.02904e+00  5.36128e-01  1.13261e+00
       H -2.80103e+00  5.41747e-01 -4.04996e-01
       H -3.80844e+00  1.87545e+00  2.44510e-01
4
# CELL(abcABC): 1000.00000  1000.00000  1000.00000    90.00000    90.00000    90.00000  Step:          49  Bead:       0 positions{angstrom}  cell{angstrom}
       O -3.13542e+00  1.07720e+00  3.58969e-01
       H -3.02009e+00  5.33864e-01  1.13692e+00
       H -2.78754e+00  5.62300e-01 -3.97736e-01
       H -3.80866e+00  1.87601e+00  2.48436e-01
4
# CELL(abcABC): 1000.00000  1000.00000  1000.00000    90.00000    90.00000    90.00000  Step:          50  Bead:       0 positions{angstrom}  cell{angstrom}
       O -3.13668e+00  1.07614e+00  3.57931e-01
       H -3.01179e+00  5.31533e-01  1.14287e+00
       H -2.77642e+00  5.83337e-01 -3.90400e-01
       H -3.80811e+00  1.87408e+00  2.51624e-01
4
# CELL(abcABC): 1000.00000  1000.00000  1000.00000    90.00000    90.00000    90.00000  Step:          51  Bead:       0 positions{angstrom}  cell{angstrom}
       O -3.13799e+00  1.07515e+00  3.56883e-01
       H -3.00434e+00  5.29125e-01  1.14943e+00
       H -2.76577e+00  6.05017e-01 -3.84492e-01
       H -3.80539e+00  1.87050e+00  2.55792e-01
4
# CELL(abcABC): 1000.00000  1000.00000  1000.00000    90.00000    90.00000    90.00000  Step:          52  Bead:       0 positions{angstrom}  cell{angstrom}
       O -3.13933e+00  1.07434e+00  3.56062e-01
       H -2.99794e+00  5.27350e-01  1.15612e+00
       H -2.75501e+00  6.25663e-01 -3.82251e-01
       H -3.80119e+00  1.86450e+00  2.59892e-01
4
# CELL(abcABC): 1000.00000  1000.00000  1000.00000    90.00000    90.00000    90.00000  Step:          53  Bead:       0 positions{angstrom}  cell{angstrom}
       O -3.14075e+00  1.07357e+00  3.55433e-01
       H -2.99179e+00  5.27405e-01  1.16117e+00
       H -2.74374e+00  6.46739e-01 -3.82724e-01
       H -3.79610e+00  1.85560e+00  2.65306e-01
4
# CELL(abcABC): 1000.00000  1000.00000  1000.00000    90.00000    90.00000    90.00000  Step:          54  Bead:       0 positions{angstrom}  cell{angstrom}
       O -3.14219e+00  1.07293e+00  3.54828e-01
       H -2.98664e+00  5.28152e-01  1.16604e+00
       H -2.73175e+00  6.67247e-01 -3.86222e-01
       H -3.79044e+00  1.84454e+00  2.73526e-01
4
# CELL(abcABC): 1000.00000  1000.00000  1000.00000    90.00000    90.00000    90.00000  Step:          55  Bead:       0 positions{angstrom}  cell{angstrom}
       O -3.14368e+00  1.07229e+00  3.54507e-01
       H -2.98304e+00  5.30830e-01  1.16995e+00
       H -2.71840e+00  6.86536e-01 -3.92844e-01
       H -3.78370e+00  1.83260e+00  2.81341e-01
4
# CELL(abcABC): 1000.00000  1000.00000  1000.00000    90.00000    90.00000    90.00000  Step:          56  Bead:       0 positions{angstrom}  cell{angstrom}
       O -3.14521e+00  1.07155e+00  3.54486e-01
       H -2.97820e+00  5.35620e-01  1.17246e+00
       H -2.70412e+00  7.04451e-01 -4.03807e-01
       H -3.77861e+00  1.82171e+00  2.90126e-01
4
# CELL(abcABC): 1000.00000  1000.00000  1000.00000    90.00000    90.00000    90.00000  Step:          57  Bead:       0 positions{angstrom}  cell{angstrom}
       O -3.14663e+00  1.07061e+00  3.54656e-01
       H -2.97256e+00  5.42752e-01  1.17342e+00
       H -2.69030e+00  7.21243e-01 -4.15877e-01
       H -3.77552e+00  1.81268e+00  2.98540e-01
4
# CELL(abcABC): 1000.00000  1000.00000  1000.00000    90.00000    90.00000    90.00000  Step:          58  Bead:       0 positions{angstrom}  cell{angstrom}
       O -3.14797e+00  1.06951e+00  3.54983e-01
       H -2.96641e+00  5.50655e-01  1.17234e+00
       H -2.67606e+00  7.37792e-01 -4.28098e-01
       H -3.77455e+00  1.80572e+00  3.06650e-01
4
# CELL(abcABC): 1000.00000  1000.00000  1000.00000    90.00000    90.00000    90.00000  Step:          59  Bead:       0 positions{angstrom}  cell{angstrom}
       O -3.14919e+00  1.06812e+00  3.55252e-01
       H -2.95965e+00  5.59829e-01  1.16985e+00
       H -2.66203e+00  7.54998e-01 -4.38173e-01
       H -3.77609e+00  1.80137e+00  3.14946e-01
4
# CELL(abcABC): 1000.00000  1000.00000  1000.00000    90.00000    90.00000    90.00000  Step:          60  Bead:       0 positions{angstrom}  cell{angstrom}
       O -3.15024e+00  1.06655e+00  3.55529e-01
       H -2.95397e+00  5.69333e-01  1.16650e+00
       H -2.64815e+00  7.71988e-01 -4.48190e-01
       H -3.77895e+00  1.79984e+00  3.23908e-01
4
# CELL(abcABC): 1000.00000  1000.00000  1000.00000    90.00000    90.00000    90.00000  Step:          61  Bead:       0 positions{angstrom}  cell{angstrom}
       O -3.15119e+00  1.06482e+00  3.55695e-01
       H -2.94714e+00  5.78475e-01  1.16265e+00
       H -2.63441e+00  7.89294e-01 -4.56871e-01
       H -3.78440e+00  1.80090e+00  3.33809e-01
4
# CELL(abcABC): 1000.00000  1000.00000  1000.00000    90.00000    90.00000    90.00000  Step:          62  Bead:       0 positions{angstrom}  cell{angstrom}
       O -3.15189e+00  1.06302e+00  3.55758e-01
       H -2.94053e+00  5.86425e-01  1.15883e+00
       H -2.62367e+00  8.06713e-01 -4.62622e-01
       H -3.79063e+00  1.80400e+00  3.42382e-01
4
# CELL(abcABC): 1000.00000  1000.00000  1000.00000    90.00000    90.00000    90.00000  Step:          63  Bead:       0 positions{angstrom}  cell{angstrom}
       O -3.15238e+00  1.06105e+00  3.55361e-01
       H -2.93276e+00  5.94536e-01  1.15663e+00
       H -2.61539e+00  8.23896e-01 -4.64646e-01
       H -3.79887e+00  1.81005e+00  3.52911e-01
4
# CELL(abcABC): 1000.00000  1000.00000  1000.00000    90.00000    90.00000    90.00000  Step:          64  Bead:       0 positions{angstrom}  cell{angstrom}
       O -3.15280e+00  1.05907e+00  3.54580e-01
       H -2.92271e+00  6.01844e-01  1.15705e+00
       H -2.60899e+00  8.41191e-01 -4.62636e-01
       H -3.80862e+00  1.81689e+00  3.62879e-01
4
# CELL(abcABC): 1000.00000  1000.00000  1000.00000    90.00000    90.00000    90.00000  Step:          65  Bead:       0 positions{angstrom}  cell{angstrom}
       O -3.15318e+00  1.05709e+00  3.53490e-01
       H -2.91229e+00  6.08687e-01  1.15808e+00
       H -2.60402e+00  8.59876e-01 -4.57015e-01
       H -3.81799e+00  1.82278e+00  3.73526e-01
4
# CELL(abcABC): 1000.00000  1000.00000  1000.00000    90.00000    90.00000    90.00000  Step:          66  Bead:       0 positions{angstrom}  cell{angstrom}
       O -3.15360e+00  1.05512e+00  3.52020e-01
       H -2.90081e+00  6.17152e-01  1.16142e+00
       H -2.60061e+00  8.77031e-01 -4.47872e-01
       H -3.82633e+00  1.82842e+00  3.84387e-01
4
# CELL(abcABC): 1000.00000  1000.00000  1000.00000    90.00000    90.00000    90.00000  Step:          67  Bead:       0 positions{angstrom}  cell{angstrom}
       O -3.15402e+00  1.05337e+00  3.50339e-01
       H -2.88798e+00  6.24110e-01  1.16522e+00
       H -2.59776e+00  8.94016e-01 -4.35882e-01
       H -3.83527e+00  1.83220e+00  3.95275e-01
4
# CELL(abcABC): 1000.00000  1000.00000  1000.00000    90.00000    90.00000    90.00000  Step:          68  Bead:       0 positions{angstrom}  cell{angstrom}
       O -3.15462e+00  1.05175e+00  3.48714e-01
       H -2.87359e+00  6.30455e-01  1.16944e+00
       H -2.59483e+00  9.10641e-01 -4.24344e-01
       H -3.84312e+00  1.83493e+00  4.05298e-01
4
# CELL(abcABC): 1000.00000  1000.00000  1000.00000    90.00000    90.00000    90.00000  Step:          69  Bead:       0 positions{angstrom}  cell{angstrom}
       O -3.15534e+00  1.05043e+00  3.46947e-01
       H -2.85888e+00  6.35205e-01  1.17533e+00
       H -2.59203e+00  9.26812e-01 -4.11969e-01
       H -3.84909e+00  1.83498e+00  4.15086e-01
4
# CELL(abcABC): 1000.00000  1000.00000  1000.00000    90.00000    90.00000    90.00000  Step:          70  Bead:       0 positions{angstrom}  cell{angstrom}
       O -3.15647e+00  1.04915e+00  3.45368e-01
       H -2.84345e+00  6.40823e-01  1.17942e+00
       H -2.58752e+00  9.43155e-01 -4.01257e-01
       H -3.85124e+00  1.83336e+00  4.25347e-01
4
# CELL(abcABC): 1000.00000  1000.00000  1000.00000    90.00000    90.00000    90.00000  Step:          71  Bead:       0 positions{angstrom}  cell{angstrom}
       O -3.15781e+00  1.04810e+00  3.44159e-01
       H -2.82871e+00  6.45854e-01  1.18053e+00
       H -2.58123e+00  9.58439e-01 -3.93404e-01
       H -3.85099e+00  1.82975e+00  4.35591e-01
4
# CELL(abcABC): 1000.00000  1000.00000  1000.00000    90.00000    90.00000    90.00000  Step:          72  Bead:       0 positions{angstrom}  cell{angstrom}
       O -3.15945e+00  1.04707e+00  3.43264e-01
       H -2.81388e+00  6.51767e-01  1.17991e+00
       H -2.57216e+00  9.73490e-01 -3.87766e-01
       H -3.84872e+00  1.82511e+00  4.44757e-01
4
# CELL(abcABC): 1000.00000  1000.00000  1000.00000    90.00000    90.00000    90.00000  Step:          73  Bead:       0 positions{angstrom}  cell{angstrom}
       O -3.16130e+00  1.04616e+00  3.42822e-01
       H -2.79970e+00  6.58181e-01  1.17695e+00
       H -2.56059e+00  9.88727e-01 -3.85081e-01
       H -3.84513e+00  1.81788e+00  4.52058e-01
4
# CELL(abcABC): 1000.00000  1000.00000  1000.00000    90.00000    90.00000    90.00000  Step:          74  Bead:       0 positions{angstrom}  cell{angstrom}
       O -3.16336e+00  1.04524e+00  3.42885e-01
       H -2.78588e+00  6.65285e-01  1.17053e+00
       H -2.54709e+00  1.00404e+00 -3.86022e-01
       H -3.83984e+00  1.81003e+00  4.58410e-01
4
# CELL(abcABC): 1000.00000  1000.00000  1000.00000    90.00000    90.00000    90.00000  Step:          75  Bead:       0 positions{angstrom}  cell{angstrom}
       O -3.16533e+00  1.04438e+00  3.43207e-01
       H -2.77327e+00  6.71844e-01  1.16180e+00
       H -2.53329e+00  1.01899e+00 -3.87653e-01
       H -3.83492e+00  1.80227e+00  4.63663e-01
4
# CELL(abcABC): 1000.00000  1000.00000  1000.00000    90.00000    90.00000    90.00000  Step:          76  Bead:       0 positions{angstrom}  cell{angstrom}
       O -3.16737e+00  1.04337e+00  3.43553e-01
       H -2.76050e+00  6.78855e-01  1.15301e+00
       H -2.51984e+00  1.03437e+00 -3.89595e-01
       H -3.82883e+00  1.79581e+00  4.68912e-01
4
# CELL(abcABC): 1000.00000  1000.00000  1000.00000    90.00000    90.00000    90.00000  Step:          77  Bead:       0 positions{angstrom}  cell{angstrom}
       O -3.16920e+00  1.04230e+00  3.43899e-01
       H -2.74843e+00  6.86763e-01  1.14372e+00
       H -2.50814e+00  1.05048e+00 -3.90346e-01
       H -3.82345e+00  1.78878e+00  4.73459e-01
4
# CELL(abcABC): 1000.00000  1000.00000  1000.00000    90.00000    90.00000    90.00000  Step:          78  Bead:       0 positions{angstrom}  cell{angstrom}
       O -3.17079e+00  1.04119e+00  3.44349e-01
       H -2.73803e+00  6.93744e-01  1.13367e+00
       H -2.49775e+00  1.06762e+00 -3.90044e-01
       H -3.81911e+00  1.78226e+00  4.76059e-01
4
# CELL(abcABC): 1000.00000  1000.00000  1000.00000    90.00000    90.00000    90.00000  Step:          79  Bead:       0 positions{angstrom}  cell{angstrom}
       O -3.17218e+00  1.04013e+00  3.44615e-01
       H -2.72862e+00  7.00716e-01  1.12587e+00
       H -2.48879e+00  1.08423e+00 -3.88094e-01
       H -3.81543e+00  1.77553e+00  4.77694e-01
4
# CELL(abcABC): 1000.00000  1000.00000  1000.00000    90.00000    90.00000    90.00000  Step:          80  Bead:       0 positions{angstrom}  cell{angstrom}
       O -3.17335e+00  1.03904e+00  3.44552e-01
       H -2.71901e+00  7.07254e-01  1.11966e+00
       H -2.48256e+00  1.10077e+00 -3.82897e-01
       H -3.81254e+00  1.76988e+00  4.79699e-01
4
# CELL(abcABC): 1000.00000  1000.00000  1000.00000    90.00000    90.00000    90.00000  Step:          81  Bead:       0 positions{angstrom}  cell{angstrom}
       O -3.17427e+00  1.03774e+00  3.44297e-01
       H -2.70747e+00  7.13857e-01  1.11481e+00
       H -2.48018e+00  1.11930e+00 -3.75290e-01
       H -3.81200e+00  1.76535e+00  4.80989e-01
4
# CELL(abcABC): 1000.00000  1000.00000  1000.00000    90.00000    90.00000    90.00000  Step:          82  Bead:       0 positions{angstrom}  cell{angstrom}
       O -3.17483e+00  1.03650e+00  3.43693e-01
       H -2.69549e+00  7.19092e-01  1.11286e+00
       H -2.48058e+00  1.13671e+00 -3.65808e-01
       H -3.81463e+00  1.76227e+00  4.83054e-01
4
# CELL(abcABC): 1000.00000  1000.00000  1000.00000    90.00000    90.00000    90.00000  Step:          83  Bead:       0 positions{angstrom}  cell{angstrom}
       O -3.17509e+00  1.03513e+00  3.42879e-01
       H -2.68396e+00  7.24109e-01  1.11324e+00
       H -2.48382e+00  1.15457e+00 -3.54917e-01
       H -3.81886e+00  1.76118e+00  4.84699e-01
4
# CELL(abcABC): 1000.00000  1000.00000  1000.00000    90.00000    90.00000    90.00000  Step:          84  Bead:       0 positions{angstrom}  cell{angstrom}
       O -3.17500e+00  1.03369e+00  3.41960e-01
       H -2.67225e+00  7.27943e-01  1.11407e+00
       H -2.49030e+00  1.17272e+00 -3.43497e-01
       H -3.82547e+00  1.76210e+00  4.87028e-01
4
# CELL(abcABC): 1000.00000  1000.00000  1000.00000    90.00000    90.00000    90.00000  Step:          85  Bead:       0 positions{angstrom}  cell{angstrom}