11135
# CELL(abcABC):   47.46614    47.46614    47.46614    90.00000    90.00000    90.00000  Step:        3100  Bead:       0 positions{angstrom}  cell{angstrom}
       C -6.73036e+00 -1.92422e+00  9.11418e-01
       H -7.02825e+00 -2.99817e+00  8.87656e-01
       H -7.51149e+00 -1.15026e+00  5.72837e-01
       H -6.39644e+00 -1.73466e+00  1.99021e+00
       C -5.52936e+00 -1.67220e+00  7.66791e-02
       O -4.72178e+00 -2.56631e+00 -2.36940e-01
       N -5.25765e+00 -3.77829e-01 -2.24679e-01
       H -5.94208e+00  3.26235e-01  8.73662e-02
       C -4.19805e+00  8.70836e-02 -1.09775e+00
       H -3.92524e+00 -6.65040e-01 -1.79760e+00
       C -4.64062e+00  1.32451e+00 -1.92909e+00
       H -3.80118e+00  1.49997e+00 -2.67648e+00
       H -4.81474e+00  2.15581e+00 -1.27899e+00
       C -5.93204e+00  1.22608e+00 -2.74277e+00
       H -6.70897e+00  6.97046e-01 -2.24139e+00
       H -5.75292e+00  6.86076e-01 -3.69277e+00
       C -6.48985e+00  2.60641e+00 -3.08709e+00
       H -5.74973e+00  3.23183e+00 -3.63259e+00
       H -6.85913e+00  3.13710e+00 -2.27697e+00
       C -7.76189e+00  2.46239e+00 -3.98991e+00
       H -8.02065e+00  3.48171e+00 -4.35293e+00
       H -8.57377e+00  2.12415e+00 -3.31466e+00
       N -7.64627e+00  1.55584e+00 -5.13129e+00
       H -6.73881e+00  1.75965e+00 -5.64903e+00
       H -8.46174e+00  1.76636e+00 -5.78412e+00
       H -7.65525e+00  5.04035e-01 -4.85958e+00
       C -3.00299e+00  4.64089e-01 -2.70928e-01
       O -2.51949e+00  1.61366e+00  2.06853e-02
       N -2.32305e+00 -6.49094e-01  2.91962e-01
       H -2.58757e+00 -1.62725e+00  2.18580e-01
       H -1.47558e+00 -4.23006e-01  7.75598e-01
       O -1.40961e+01 -3.33628e+00 -2.65918e+01
       H -1.44876e+01 -3.91372e+00 -2.72435e+01
       H -1.32489e+01 -3.74905e+00 -2.64459e+01
       O -2.30669e+01 -7.30677e+00 -5.60199e+00
       H -2.34865e+01 -6.85070e+00 -4.86449e+00
       H -2.29088e+01 -6.60063e+00 -6.21848e+00
       O  1.43878e+01 -1.33520e+01 -2.25405e+00
       H  1.50334e+01 -1.27455e+01 -1.96520e+00
       H  1.35796e+01 -1.28061e+01 -2.08125e+00
       O -1.42559e+01 -1.24057e+01 -2.15837e+01
       H -1.34150e+01 -1.19899e+01 -2.14063e+01
       H -1.40257e+01 -1.33716e+01 -2.14952e+01
       O -7.08193e+00 -1.12365e+01 -1.85024e+01
       H -6.13291e+00 -1.12153e+01 -1.80822e+01
       H -7.38493e+00 -1.04481e+01 -1.80272e+01
       O  2.32109e+01 -2.41560e+01  2.70130e+01
       H  2.36537e+01 -2.43473e+01  2.78929e+01
       H  2.32963e+01 -2.31968e+01  2.68786e+01
       O -2.00539e+01 -1.07599e+01 -1.90562e+00
       H -2.09901e+01 -1.08514e+01 -2.12860e+00
       H -2.00575e+01 -1.05632e+01 -9.49514e-01
       O  1.73566e+01 -2.44409e+01 -2.04235e+01
       H  1.79903e+01 -2.42696e+01 -1.97330e+01
       H  1.79165e+01 -2.46428e+01 -2.11685e+01
       O -1.10610e+01 -1.88241e+01 -2.92571e+00
       H -1.05852e+01 -1.87421e+01 -3.82988e+00
       H -1.18579e+01 -1.93695e+01 -3.17983e+00
       O  1.69387e+01 -1.87100e+01 -4.26498e+00
       H  1.70522e+01 -1.96758e+01 -4.42901e+00
       H  1.77710e+01 -1.83716e+01 -4.70919e+00
       O -3.08095e+01 -1.26055e+01 -4.68964e+00
       H -3.02591e+01 -1.33782e+01 -4.92520e+00
       H -3.09241e+01 -1.23478e+01 -5.56659e+00
       O  7.11247e+00 -2.88078e+01 -6.56671e+00
       H  7.35694e+00 -2.96306e+01 -7.00132e+00
       H  7.36544e+00 -2.81063e+01 -7.16504e+00
       O  6.20239e+00  1.30408e+01 -9.70968e+00
       H  6.60785e+00  1.26858e+01 -8.89881e+00
       H  5.35731e+00  1.34010e+01 -9.44743e+00
       O -3.82387e+01 -1.07647e+01 -7.84504e+00
       H -3.87490e+01 -1.03573e+01 -7.07729e+00
       H -3.82737e+01 -1.00155e+01 -8.42900e+00
       O -1.08521e+00 -2.06924e+01 -2.96865e+01
       H -2.62911e-01 -2.02939e+01 -2.93142e+01
       H -1.75541e+00 -2.03943e+01 -2.90011e+01
       O  6.06760e-01 -1.03499e+01 -9.53611e+00
       H  8.49296e-01 -1.12822e+01 -9.91251e+00
       H  1.36484e+00 -9.81534e+00 -9.91315e+00
       O -5.67004e+00 -1.72339e+01 -1.01890e+00
       H -5.07610e+00 -1.76504e+01 -1.61206e+00
       H -6.27260e+00 -1.80028e+01 -9.77511e-01
       O -1.11162e+00 -1.66789e+01 -2.82192e+01
       H -6.90783e-01 -1.65818e+01 -2.91274e+01
       H -2.04915e+00 -1.67166e+01 -2.85147e+01
       O -6.86218e+00 -1.83244e+01 -1.13151e+01
       H -7.58796e+00 -1.86571e+01 -1.18766e+01
       H -7.22253e+00 -1.74432e+01 -1.11141e+01
       O -6.86876e+00  1.82472e+01  3.89764e+00
       H -5.99198e+00  1.78934e+01  3.63690e+00
       H -6.86129e+00  1.91517e+01  3.53550e+00
       O -2.64627e+01 -8.34900e+00 -2.51852e+00
       H -2.58462e+01 -8.84065e+00 -3.09794e+00
       H -2.71862e+01 -8.19235e+00 -3.11607e+00
       O -2.84661e+01 -5.28125e+00 -7.26919e+00
       H -2.89738e+01 -4.57556e+00 -7.60972e+00
       H -2.92222e+01 -5.84197e+00 -6.99719e+00
       O  2.69636e+01 -1.63672e+01 -2.26966e+01
       H  2.62503e+01 -1.59267e+01 -2.21852e+01
       H  2.72748e+01 -1.70895e+01 -2.22036e+01
       O -1.78700e+01 -1.12720e+01 -1.35447e+01
       H -1.81986e+01 -1.07800e+01 -1.43377e+01
       H -1.76114e+01 -1.05740e+01 -1.28798e+01
       O -7.25527e+00 -2.01128e+01 -1.45847e+01
       H -7.54349e+00 -1.99477e+01 -1.54830e+01
       H -7.84842e+00 -2.08577e+01 -1.43830e+01
       O -1.86240e+01 -1.32882e+01  2.63379e+01
       H -1.85248e+01 -1.41428e+01  2.58789e+01
       H -1.88673e+01 -1.26254e+01  2.56341e+01
       O -1.67369e+00 -4.19874e+01 -2.22783e+01
       H -2.50796e+00 -4.16622e+01 -2.27096e+01
       H -1.97688e+00 -4.22016e+01 -2.13274e+01
       O -1.24210e+00 -4.18424e+00  1.78291e+01
       H -1.47461e+00 -3.26870e+00  1.80275e+01
       H -2.51104e-01 -4.09311e+00  1.76197e+01
       O -1.43191e+01  2.54953e+00 -3.58577e+00
       H -1.44855e+01  3.09563e+00 -4.36522e+00
       H -1.34178e+01  2.68849e+00 -3.33117e+00
       O -2.19383e+01 -5.01141e+00  2.66440e+01
       H -2.17726e+01 -4.40862e+00  2.58450e+01
       H -2.25118e+01 -4.37035e+00  2.71431e+01
       O -1.78649e+01 -1.53057e+01 -1.93975e+01
       H -1.83371e+01 -1.45604e+01 -1.98148e+01
       H -1.71746e+01 -1.55150e+01 -2.00178e+01
       O  2.34863e+00 -1.17518e+01 -2.19671e+01
       H  2.41487e+00 -1.26532e+01 -2.22955e+01
       H  2.93429e+00 -1.12673e+01 -2.25283e+01
       O -1.10640e+00 -1.22148e+01 -2.91206e+01
       H -1.91141e+00 -1.27074e+01 -2.94766e+01
       H -1.27456e+00 -1.21157e+01 -2.81704e+01
       O -2.11248e+00 -2.42554e+01  3.39264e+00
       H -1.72210e+00 -2.44065e+01  4.31112e+00
       H -3.04041e+00 -2.39556e+01  3.61294e+00
       O -2.12788e+01 -1.53356e+01 -1.42992e+01
       H -2.06578e+01 -1.46054e+01 -1.40705e+01
       H -2.06721e+01 -1.60411e+01 -1.39316e+01
       O -2.68402e+01 -2.44481e+01  1.99272e+01
       H -2.74363e+01 -2.50723e+01  2.03646e+01
       H -2.72764e+01 -2.36121e+01  2.02265e+01
       O -1.69430e+01 -2.43949e+01 -6.09106e+00
       H -1.62446e+01 -2.50793e+01 -6.44499e+00
       H -1.70953e+01 -2.38291e+01 -6.84824e+00
       O  1.06676e-01 -4.75868e+00 -3.56097e+01
       H -7.23233e-01 -4.24634e+00 -3.57696e+01
       H  6.22543e-01 -4.54823e+00 -3.63979e+01
       O -7.79416e+00  4.95671e+00 -1.17712e+01
       H -8.08311e+00  4.64386e+00 -1.08883e+01
       H -6.90297e+00  5.32233e+00 -1.14485e+01
       O -7.18959e+00 -2.41815e+01 -1.58371e+01
       H -7.14639e+00 -2.35304e+01 -1.50909e+01
       H -6.32354e+00 -2.46064e+01 -1.57987e+01
       O  1.34807e+01 -2.10851e+01 -1.20477e+01
       H  1.32182e+01 -2.14414e+01 -1.29370e+01
       H  1.26017e+01 -2.10446e+01 -1.16937e+01
       O -1.07547e+01 -3.04027e+00 -3.75760e+01
       H -1.04264e+01 -3.05438e+00  1.08306e+01
       H -1.06004e+01 -2.09437e+00 -3.78944e+01
       O  1.45568e+01 -2.67982e+01 -1.32599e+01
       H  1.45531e+01 -2.58305e+01 -1.32191e+01
       H  1.54841e+01 -2.69507e+01 -1.35986e+01
       O -2.18964e+01 -9.88740e+00 -2.28803e+01
       H -2.18855e+01 -8.87009e+00 -2.28248e+01
       H -2.26859e+01 -1.01729e+01 -2.24650e+01
       O -2.49104e+01 -2.41547e+01 -1.49559e+01
       H -2.46541e+01 -2.50942e+01 -1.50601e+01
       H -2.55398e+01 -2.40747e+01 -1.57463e+01
       O -1.73215e+00 -1.32786e+01  1.03464e+01
       H -1.74798e+00 -1.26705e+01  9.57286e+00
       H -2.36713e+00 -1.39168e+01  1.00457e+01
       O -1.44589e+01 -1.58649e+01  1.31396e+00
       H -1.39840e+01 -1.54783e+01  2.03921e+00
       H -1.53439e+01 -1.55814e+01  1.62793e+00
       O  4.93597e+00 -1.60201e+01 -1.21987e+01
       H  4.06559e+00 -1.58047e+01 -1.25837e+01
       H  5.24730e+00 -1.67646e+01 -1.26845e+01
       O  8.61372e+00 -6.21401e+00 -1.63296e+01
       H  8.51166e+00 -6.08446e+00 -1.72882e+01
       H  9.41032e+00 -6.71989e+00 -1.62921e+01
       O -2.29261e+01  1.48897e+00 -1.12171e+01
       H -2.24565e+01  2.10891e+00 -1.18322e+01
       H -2.30224e+01  6.91253e-01 -1.16835e+01
       O -1.39286e+01 -7.24054e+00 -2.60053e+01
       H -1.39342e+01 -8.13408e+00 -2.64804e+01
       H -1.45379e+01 -6.86268e+00 -2.65870e+01
       O -1.58109e+01 -1.13282e+01 -2.34953e+01
       H -1.56236e+01 -1.20488e+01 -2.41246e+01
       H -1.53342e+01 -1.16401e+01 -2.27092e+01
       O -8.27601e+00 -1.22712e+01 -2.59900e+01
       H -8.83738e+00 -1.18086e+01 -2.66596e+01
       H -8.30534e+00 -1.16461e+01 -2.52569e+01
       O -1.35231e+01 -2.31049e+00 -9.02786e+00
       H -1.32232e+01 -2.08709e+00 -8.08913e+00
       H -1.30450e+01 -3.14930e+00 -9.14932e+00
       O  6.18401e+00 -9.10901e+00 -1.84944e+01
       H  5.87725e+00 -8.25357e+00 -1.82265e+01
       H  5.34900e+00 -9.48622e+00 -1.87708e+01
       O -1.44803e+01 -1.10254e+01  5.61916e+00
       H -1.51937e+01 -1.13954e+01  6.15845e+00
       H -1.49454e+01 -1.04416e+01  4.95144e+00
       O -1.91212e+01 -3.08268e+00  5.92596e-01
       H -1.92990e+01 -3.95275e+00  8.89832e-01
       H -2.00278e+01 -2.70471e+00  6.87357e-01
       O -2.75772e+00 -1.50599e+01 -2.14615e+01
       H -3.40391e+00 -1.51449e+01 -2.22114e+01
       H -2.46435e+00 -1.41856e+01 -2.16027e+01
       O -4.79560e+00 -2.05509e+01 -1.26987e+01
       H -4.27861e+00 -2.07696e+01 -1.34994e+01
       H -5.68360e+00 -2.06373e+01 -1.31059e+01
       O  2.65887e+00  2.86878e+01  6.01194e+00
       H  1.98136e+00  2.91343e+01  5.52888e+00
       H  3.42015e+00  2.91501e+01  5.62559e+00
       O -8.51941e+00 -4.25560e+00 -3.28733e+01
       H -8.20396e+00 -5.20485e+00 -3.26943e+01
       H -8.34555e+00 -3.75023e+00 -3.20365e+01
       O -6.85086e+00  2.35986e+01  2.59646e+00
       H -7.76516e+00  2.32106e+01  2.65439e+00
       H -7.04742e+00  2.45694e+01  2.74485e+00
       O -1.55510e+00 -8.69319e+00 -8.81354e+00
       H -2.36400e+00 -9.27372e+00 -8.87333e+00
       H -8.25112e-01 -9.34500e+00 -9.07799e+00
       O  5.14275e+00 -1.11499e+01 -1.76256e+00
       H  5.54891e+00 -1.06948e+01 -1.05372e+00
       H  5.55762e+00 -1.07223e+01 -2.44047e+00
       O -1.81385e+00 -9.08742e+00  4.68071e+00
       H -1.07517e+00 -9.34543e+00  4.05452e+00
       H -2.25791e+00 -8.50577e+00  4.04266e+00
       O -1.69675e+01 -2.60301e+00  1.63371e+01
       H -1.75615e+01 -3.11400e+00  1.57584e+01
       H -1.61138e+01 -2.91293e+00  1.59815e+01
       O -1.90014e+01 -9.76104e+00 -9.67641e+00
       H -1.88626e+01 -9.83355e+00 -1.05842e+01
       H -1.86833e+01 -8.83906e+00 -9.43442e+00
       O  5.05312e+00 -1.12479e+01 -1.19187e+01
       H  5.25299e+00 -1.03977e+01 -1.14228e+01
       H  5.87606e+00 -1.16386e+01 -1.17331e+01
       O -1.12623e+01 -2.25795e+01 -1.10127e+01
       H -1.20065e+01 -2.32069e+01 -1.11192e+01
       H -1.16342e+01 -2.19437e+01 -1.03726e+01
       O -3.68032e+01 -2.43172e+01  2.50889e+01
       H -3.60615e+01 -2.42782e+01  2.45350e+01
       H -3.65092e+01 -2.48568e+01  2.58216e+01
       O  2.16774e+01  2.83610e+01  2.32439e+01
       H  2.22851e+01  2.76652e+01  2.28542e+01
       H  2.07943e+01  2.80459e+01  2.29398e+01
       O -3.18154e+00 -1.05546e+01 -1.44854e+01
       H -2.57749e+00 -1.00463e+01 -1.39080e+01
       H -2.61978e+00 -1.11890e+01 -1.49686e+01
       O -9.65565e+00 -1.47298e+01 -8.70235e+00
       H -9.12576e+00 -1.39135e+01 -8.67687e+00
       H -1.02294e+01 -1.46471e+01 -9.49972e+00
       O -1.75711e+01 -2.07823e+00  5.82472e+00
       H -1.84432e+01 -1.95991e+00  5.33054e+00
       H -1.74261e+01 -2.98812e+00  5.41779e+00
       O -1.39292e+01 -1.97888e+01 -2.57507e+01
       H -1.38897e+01 -1.87360e+01 -2.56880e+01
       H -1.30855e+01 -2.00440e+01 -2.53957e+01
       O -1.49015e+01 -1.88599e+01 -2.22555e+01
       H -1.52677e+01 -1.80502e+01 -2.18122e+01
       H -1.40828e+01 -1.85558e+01 -2.26693e+01
       O -5.70727e+00 -1.11864e+01 -1.48347e+01
       H -5.61284e+00 -1.12208e+01 -1.57498e+01
       H -4.74085e+00 -1.09896e+01 -1.46838e+01
       O -1.44843e+01 -1.31575e+01 -1.55477e+01
       H -1.46063e+01 -1.26645e+01 -1.63669e+01
       H -1.54549e+01 -1.34024e+01 -1.53714e+01
       O -1.53662e+01 -2.12412e+01 -1.22199e+01
       H -1.52171e+01 -2.10913e+01 -1.12680e+01
       H -1.62609e+01 -2.15998e+01 -1.21861e+01
       O -1.31240e+01 -2.12856e+01 -1.42242e+01
       H -1.38418e+01 -2.11964e+01 -1.36173e+01
       H -1.35666e+01 -2.18684e+01 -1.48878e+01
       O -7.75243e+00 -1.58329e+01 -1.04361e+01
       H -6.97989e+00 -1.53179e+01 -1.00297e+01
       H -8.32634e+00 -1.59308e+01 -9.69126e+00
       O  2.28909e+01 -1.65803e+01 -1.10841e+01
       H  2.22663e+01 -1.61997e+01 -1.04376e+01
       H  2.37582e+01 -1.62202e+01 -1.08135e+01
       O -7.18791e+00 -2.78465e+01 -1.96343e+00
       H -6.20558e+00 -2.79733e+01 -2.12698e+00
       H -7.30174e+00 -2.70489e+01 -2.57761e+00
       O -1.60350e+01 -2.37988e+01  8.88926e+00
       H -1.68794e+01 -2.43493e+01  8.82586e+00
       H -1.54269e+01 -2.45462e+01  9.04056e+00
       O -1.34660e+01 -9.23618e+00 -1.02979e+00
       H -1.39997e+01 -8.41389e+00 -1.24481e+00
       H -1.40593e+01 -9.83704e+00 -1.53334e+00
       O -1.42985e+01  3.22499e+00 -1.75033e+01
       H -1.40083e+01  3.84956e+00 -1.81714e+01
       H -1.51575e+01  3.06600e+00 -1.78138e+01
       O  2.79476e+01 -1.34824e+01  4.05592e+00
       H  2.70863e+01 -1.32240e+01  3.62064e+00
       H  2.84753e+01 -1.37013e+01  3.25054e+00
       O  1.53047e+01 -1.53530e+01 -2.26081e+01
       H  1.52733e+01 -1.59244e+01 -2.33469e+01
       H  1.59972e+01 -1.47006e+01 -2.28680e+01
       O  6.15027e+00 -2.66690e+01 -4.39181e+00
       H  6.24164e+00 -2.60232e+01 -5.17291e+00
       H  5.14271e+00 -2.66402e+01 -4.43409e+00
       O -2.10313e+01 -1.31185e+01 -1.95656e+01
       H -2.12079e+01 -1.21731e+01 -1.96481e+01
       H -2.02506e+01 -1.32715e+01 -2.01308e+01
       O -3.02836e+00 -8.20472e+00 -1.22008e+01
       H -3.32865e+00 -7.59507e+00 -1.29894e+01
       H -2.31344e+00 -8.72855e+00 -1.26891e+01
       O -1.04232e+00 -6.48929e+00 -1.05665e+01
       H -1.04293e+00 -7.08703e+00 -9.76933e+00
       H -1.65445e+00 -6.92427e+00 -1.12003e+01
       O -7.31546e+00 -4.22417e+00 -2.09605e+00
       H -8.00052e+00 -3.50690e+00 -2.01730e+00
       H -7.24104e+00 -4.26797e+00 -3.03934e+00
       O -1.04468e+01  1.25291e+01 -1.07939e+01
       H -9.54085e+00  1.28101e+01 -1.10900e+01
       H -1.06829e+01  1.19045e+01 -1.14646e+01
       O -2.21685e-01 -6.46204e+00 -2.79092e+01
       H  1.83431e-01 -7.24882e+00 -2.83750e+01
       H -5.87075e-01 -6.04178e+00 -2.86654e+01
       O -2.44619e+01 -1.04962e+01  2.54625e+01
       H -2.44002e+01 -1.07839e+01  2.64082e+01
       H -2.47701e+01 -9.62760e+00  2.55992e+01
       O  2.17216e+01 -1.13966e+01  4.06676e+01
       H  2.08700e+01 -1.11441e+01  4.10736e+01
       H  2.22202e+01 -1.15954e+01  4.14579e+01
       O -1.12279e+01 -5.12863e+00 -1.69209e+01
       H -1.10577e+01 -5.60589e+00 -1.77380e+01
       H -1.21122e+01 -4.60713e+00 -1.69845e+01
       O -1.63970e+01 -1.22971e+01 -1.98010e+01
       H -1.72376e+01 -1.26414e+01 -2.01612e+01
       H -1.58448e+01 -1.21188e+01 -2.05786e+01
       O -2.39208e+01 -7.95272e+00  2.86678e+01
       H -2.43944e+01 -8.73380e+00  2.90209e+01
       H -2.45258e+01 -7.59289e+00  2.79566e+01
       O -1.13689e+01 -1.33630e+01 -2.67928e+01
       H -1.09764e+01 -1.40732e+01 -2.62403e+01
       H -1.06788e+01 -1.31279e+01 -2.74403e+01
       O -9.33836e+00 -1.55547e+01 -2.03239e+01
       H -1.00144e+01 -1.54039e+01 -2.10081e+01
       H -8.62811e+00 -1.50456e+01 -2.07068e+01
       O -1.02376e+01  1.86240e+01 -1.42878e+00
       H -9.59393e+00  1.93552e+01 -1.49188e+00
       H -1.10498e+01  1.89816e+01 -1.66607e+00
       O -1.46990e+01 -3.51259e+00 -3.71643e+00
       H -1.48431e+01 -4.06121e+00 -2.90375e+00
       H -1.53850e+01 -2.81014e+00 -3.61689e+00
       O -1.01558e+01 -8.12513e+00  1.49637e+00
       H -1.06407e+01 -7.35967e+00  1.15861e+00
       H -1.09183e+01 -8.74326e+00  1.61254e+00
       O -3.85960e+00 -2.31959e+01 -2.90380e+01
       H -3.02877e+00 -2.31724e+01 -2.85119e+01
       H -4.22178e+00 -2.23953e+01 -2.86683e+01
       O  1.02748e+01 -1.40250e+00 -1.10653e+01
       H  9.67312e+00 -1.37407e+00 -1.03641e+01
       H  9.86526e+00 -2.05672e+00 -1.16084e+01
       O -7.99703e+00 -3.20663e+00  1.71941e+01
       H -7.41729e+00 -2.79713e+00  1.78673e+01
       H -8.69556e+00 -3.62480e+00  1.77988e+01
       O  2.88803e+01 -2.08292e+01  1.86046e+01
       H  2.97408e+01 -2.03886e+01  1.85470e+01
       H  2.82051e+01 -2.01391e+01  1.83820e+01
       O -2.46207e+01 -1.41834e+01  8.79681e+00
       H -2.44925e+01 -1.50958e+01  8.66735e+00
       H -2.54734e+01 -1.41399e+01  8.34338e+00
       O -1.30114e+01  2.28204e+01 -1.09602e+01
       H -1.38258e+01  2.23933e+01 -1.05487e+01
       H -1.31663e+01  2.26408e+01 -1.18821e+01
       O -1.97329e+01 -1.06328e+01  1.62861e+01
       H -2.07129e+01 -1.06619e+01  1.63929e+01
       H -1.95467e+01 -9.70249e+00  1.63627e+01
       O  2.32003e+01 -2.68459e+01  1.29147e+01
       H  2.26355e+01 -2.74220e+01  1.33789e+01
       H  2.37289e+01 -2.64631e+01  1.36514e+01
       O  1.09869e+01 -3.23571e+01 -1.72102e+01
       H  1.09254e+01 -3.19197e+01 -1.80763e+01
       H  1.06832e+01 -3.16963e+01 -1.65826e+01
       O -5.12085e+00 -1.37566e+01 -1.55319e+00
       H -5.95755e+00 -1.41654e+01 -1.23398e+00
       H -5.48526e+00 -1.28273e+01 -1.75165e+00
       O  1.05877e+01 -1.79974e+01 -1.29677e+00
       H  1.13981e+01 -1.75295e+01 -1.58877e+00
       H  1.07102e+01 -1.80299e+01 -3.10782e-01
       O -6.33246e+00  2.01464e+01 -2.27391e+01
       H -5.90007e+00  1.95161e+01  2.40991e+01
       H -6.37118e+00  1.96030e+01  2.54886e+01
       O  1.89322e+01 -1.93087e+01  2.44898e+01
       H  1.88043e+01 -1.86686e+01 -2.36705e+01
       H  1.80350e+01 -1.96490e+01 -2.29608e+01
       O  1.19083e+00  1.39107e+01  2.73628e+00
       H  1.37367e+00  1.32288e+01  3.41375e+00
       H  1.12469e+00  1.34424e+01  1.90648e+00
       O -1.16299e+01  2.03805e+01  1.85109e+01
       H -1.22275e+01  2.11524e+01  1.85778e+01
       H -1.15071e+01  2.01288e+01  1.94526e+01
       O  2.54035e+01 -9.65604e+00  4.26222e+01
       H  2.61813e+01 -9.54904e+00  4.20796e+01
       H  2.49163e+01 -8.87015e+00  4.23422e+01
       O  1.71295e+01 -1.05101e+01 -1.90499e+01
       H  1.67881e+01 -9.60448e+00 -1.91703e+01
       H  1.65580e+01 -1.09802e+01 -1.84225e+01
       O -5.37117e+00 -1.48407e+01 -1.71437e+01
       H -6.23342e+00 -1.47446e+01 -1.76105e+01
       H -5.51190e+00 -1.56204e+01 -1.66439e+01
       O -6.16509e+00 -1.00985e+01  6.22406e-01
       H -7.04474e+00  3.75983e+01  2.27180e-01
       H -6.05247e+00 -9.35973e+00  1.23052e+00
       O  2.83061e+01 -3.40781e+00  2.39141e+01
       H  2.83829e+01 -3.32190e+00  2.29682e+01
       H  2.86550e+01 -2.54390e+00  2.41835e+01
       O -2.18006e+01  6.58436e+00 -3.33350e+00
       H -2.24975e+01  6.51656e+00 -2.62084e+00
       H -2.23551e+01  6.41149e+00 -4.12039e+00
       O  1.97302e+01 -5.96071e+00 -1.28226e+01
       H  1.97447e+01 -7.01687e+00 -1.28100e+01
       H  1.89086e+01 -5.76444e+00 -1.32359e+01
       O -1.20118e+01 -9.39469e+00  2.90929e+01
       H -1.10463e+01 -9.50393e+00  2.93624e+01
       H -1.23370e+01 -8.83642e+00  2.98410e+01
       O -1.66800e+01 -1.25632e+01  2.14453e+00
       H -1.72095e+01 -1.34113e+01  2.18481e+00
       H -1.57331e+01 -1.28524e+01  2.39424e+00
       O  2.23553e+00 -2.23921e+01 -1.37718e+01
       H  1.76013e+00 -2.23539e+01 -1.28955e+01
       H  2.75457e+00 -2.15528e+01 -1.36528e+01
       O -2.15979e+01 -7.30308e+00 -8.80375e+00
       H -2.08067e+01 -6.87835e+00 -8.82042e+00
       H -2.15574e+01 -7.85587e+00 -8.02174e+00
       O -1.57029e+01 -2.32151e+01  2.32517e+01
       H -1.58372e+01 -2.39831e+01  2.37472e+01
       H -1.63300e+01 -2.33791e+01  2.25263e+01
       O  5.02669e+00 -3.17729e+01  6.98692e-02
       H  5.01576e+00 -3.08147e+01 -3.61334e-02
       H  4.42627e+00 -3.17753e+01  8.45393e-01
       O -1.05762e+01 -1.64444e+01  1.91644e+01
       H -9.84293e+00 -1.60930e+01  1.97940e+01
       H -1.08769e+01 -1.72494e+01  1.97203e+01
       O  4.62964e+00 -9.03320e+00 -1.36242e+01
       H  5.54617e+00 -9.24262e+00 -1.39626e+01
       H  4.32807e+00 -9.83284e+00 -1.31964e+01
       O -1.15436e+01 -1.26233e+01 -1.34338e+01
       H -1.18924e+01 -1.21697e+01 -1.42001e+01
       H -1.05964e+01 -1.27634e+01 -1.36488e+01
       O  1.78361e+01 -2.46937e+01 -1.24711e+01
       H  1.73444e+01 -2.52531e+01 -1.31621e+01
       H  1.87940e+01 -2.50879e+01 -1.25882e+01
       O -3.32942e+00 -1.88444e+01 -7.77070e+00
       H -4.00076e+00 -1.89219e+01 -7.05326e+00
       H -3.62367e+00 -1.80560e+01 -8.21461e+00
       O -1.95864e+01 -1.35278e+01 -1.36196e+01
       H -1.92686e+01 -1.38846e+01 -1.27527e+01
       H -1.89743e+01 -1.28030e+01 -1.36128e+01
       O  1.30833e-01 -2.48979e+01 -2.92225e+01
       H -1.17348e-01 -2.51727e+01 -3.01256e+01
       H  4.25660e-01 -2.57945e+01 -2.88771e+01
       O  1.63084e+01 -2.52059e+01 -2.31198e+01
       H  1.70494e+01 -2.57511e+01 -2.27404e+01
       H  1.67722e+01 -2.44110e+01 -2.33116e+01
       O  1.56661e+01  2.55338e+01  1.50794e+01
       H  1.53037e+01  2.52305e+01  1.59577e+01
       H  1.61116e+01  2.47180e+01  1.48347e+01
       O -1.04894e+01 -8.82460e-01 -9.98948e+00
       H -1.06739e+01 -1.77938e+00 -1.04114e+01
       H -1.14257e+01 -6.84818e-01 -9.72838e+00
       O -2.80964e+00 -3.95542e+01 -5.38590e+00
       H -1.85008e+00  7.68521e+00 -5.49251e+00
       H -2.96677e+00 -3.95342e+01 -6.31845e+00
       O -4.48853e+00 -1.76046e+01 -2.67941e+01
       H -5.31522e+00 -1.77054e+01 -2.72815e+01
       H -4.15852e+00 -1.67011e+01 -2.70476e+01
       O -1.59931e+01 -3.81449e+01  7.58406e+00
       H -1.56590e+01 -3.77340e+01  6.78770e+00
       H -1.54152e+01 -3.77730e+01  8.28517e+00
       O  2.50415e+00  3.71807e+00  1.59037e+00
       H  1.92711e+00  3.08995e+00  1.13189e+00
       H  2.61054e+00  4.25177e+00  7.91767e-01
       O -2.24216e+01 -6.45322e+00 -1.96522e+00
       H -2.31961e+01 -6.38146e+00 -2.59478e+00
       H -2.28900e+01 -5.81292e+00 -1.43991e+00
       O  3.07058e+01 -1.67936e+01  1.14986e+01
       H  3.15381e+01 -1.64146e+01  1.11535e+01
       H  3.00759e+01 -1.60847e+01  1.14457e+01
       O -2.71648e+00 -1.19214e+01  3.59427e+00
       H -3.32118e+00 -1.24505e+01  2.95349e+00
       H -2.13229e+00 -1.14436e+01  2.95724e+00
       O  1.34130e+01 -1.87468e+01 -4.97830e+00
       H  1.37763e+01 -1.96539e+01 -4.74806e+00
       H  1.33573e+01  2.86585e+01 -5.89656e+00
       O -1.12130e+01  2.20664e+01  1.43951e+00
       H -1.19322e+01  2.25979e+01  1.01098e+00
       H -1.15419e+01  2.12097e+01  1.20697e+00
       O -5.10643e+00 -7.10482e+00 -2.80331e+01
       H -4.39948e+00 -7.58638e+00 -2.84704e+01
       H -4.70765e+00 -7.14771e+00 -2.71041e+01
       O  2.56495e+01 -1.99111e+01  2.33161e+01
       H  2.51264e+01 -1.96359e+01  2.25097e+01
       H  2.65841e+01 -1.96863e+01  2.30012e+01
       O  5.81176e+00  6.98586e+00 -4.73020e-02
       H  5.32291e+00  7.72017e+00  4.89217e-01
       H  5.79235e+00  7.39156e+00 -9.22952e-01
       O  1.56514e+01 -1.26504e+01 -3.03907e+01
       H  1.57449e+01 -1.17925e+01 -2.98494e+01
       H  1.47319e+01 -1.27261e+01 -3.06094e+01
       O -8.81910e+00  2.62493e+01 -3.16797e+00
       H -8.86791e+00  2.53745e+01 -3.63582e+00
       H -9.56886e+00  2.62456e+01 -2.56864e+00
       O -5.49390e+00 -1.84270e+01 -2.33936e+01
       H -5.69831e+00 -1.89960e+01 -2.41489e+01
       H -5.76762e+00 -1.88748e+01 -2.25812e+01
       O  2.34667e+00 -2.79062e+00 -1.94580e+01
       H  2.84846e+00 -3.04889e+00 -1.86978e+01
       H  2.36370e+00 -1.82639e+00 -1.93530e+01
       O -4.84266e+00 -6.83303e+00  1.54114e+01
       H -4.38425e+00 -6.72959e+00  1.62785e+01
       H -4.58333e+00 -7.74478e+00  1.51265e+01
       O -8.41391e+00 -2.25534e+01 -2.70022e+01
       H -8.33151e+00 -2.25180e+01 -2.60051e+01
       H -7.80156e+00 -2.32983e+01 -2.72024e+01
       O  1.40786e+01 -5.36485e+00 -2.81203e+01
       H  1.39282e+01 -6.14089e+00 -2.74678e+01
       H  1.32673e+01 -5.32746e+00 -2.86791e+01
       O -1.01214e+01 -4.11326e+00  1.86406e+01
       H -1.06304e+01 -4.74345e+00  1.92331e+01
       H -1.06300e+01 -4.35049e+00  1.78059e+01
       O -9.98930e+00 -1.86527e+01 -9.74625e+00
       H -9.50873e+00 -1.86805e+01 -1.05887e+01
       H -1.09316e+01 -1.86260e+01 -1.00135e+01
       O -2.25682e+01 -1.50047e+01  2.64860e+01
       H -2.31937e+01 -1.54558e+01  2.71285e+01
       H -2.22589e+01 -1.42470e+01  2.70014e+01
       O  5.97072e+00 -9.22042e+00 -1.02390e+01
       H  5.34432e+00 -8.58141e+00 -9.85322e+00
       H  6.63505e+00 -9.31072e+00 -9.54078e+00
       O -6.06799e+00  3.52652e+00 -9.44946e+00
       H -5.53667e+00  2.81019e+00 -9.10488e+00
       H -5.33362e+00  4.08376e+00 -9.75936e+00
       O -6.33744e+00  3.32086e+00 -3.36442e+01
       H -6.66691e+00  2.91477e+00 -3.28136e+01
       H -6.25288e+00  4.22383e+00 -3.33365e+01
       O -1.13195e+00 -1.87189e+01 -1.36807e+01
       H -1.77745e+00 -1.82963e+01 -1.30913e+01
       H -7.66565e-01 -1.94263e+01 -1.31404e+01
       O -3.92871e+00 -7.80637e+00 -2.55291e+01
       H -4.19054e+00 -8.18622e+00 -2.46802e+01
       H -2.94591e+00 -8.04972e+00 -2.55652e+01
       O  5.37700e-01 -1.30242e+01 -2.59962e+01
       H  6.36623e-02 -1.37338e+01 -2.56227e+01
       H -1.36965e-01 -1.23320e+01 -2.59208e+01
       O -6.44510e+00  2.55585e+01 -1.04558e+01
       H -6.98854e+00  2.48040e+01 -1.01425e+01
       H -6.80741e+00  2.55952e+01 -1.13724e+01
       O -4.66616e+00 -2.08150e+01 -5.23685e+00
       H -4.98029e+00 -1.99118e+01 -5.20364e+00
       H -3.78404e+00 -2.08384e+01 -4.95701e+00
       O -2.44717e+00  1.03912e+01 -7.46726e+00
       H -2.70364e+00  1.09686e+01 -6.72918e+00
       H -3.19029e+00  1.03961e+01 -8.06841e+00
       O -6.01961e+00 -1.99419e+01 -2.12628e+01
       H -6.91625e+00 -1.98939e+01 -2.09396e+01
       H -5.95183e+00 -2.09051e+01 -2.14892e+01
       O -2.60707e+01 -1.55766e+01 -1.72437e+01
       H -2.64305e+01 -1.64051e+01 -1.74114e+01
       H -2.53241e+01 -1.58821e+01 -1.67769e+01
       O -1.57697e+01 -1.94264e+01 -1.43014e+01
       H -1.56404e+01 -1.85541e+01 -1.38992e+01
       H -1.55173e+01 -1.99811e+01 -1.35515e+01
       O  1.51559e+01  2.20645e+01 -9.44415e+00
       H  1.45098e+01  2.14237e+01 -9.72633e+00
       H  1.49596e+01  2.27977e+01 -1.01416e+01
       O -8.49661e+00  2.22509e+01 -2.35352e+01
       H -7.73600e+00  2.17787e+01 -2.39224e+01
       H -9.16043e+00  2.19891e+01 -2.41765e+01
       O  2.46924e+01 -3.11670e+01  1.69848e+01
       H  2.52827e+01 -3.03614e+01  1.69163e+01
       H  2.41358e+01 -3.10378e+01  1.61996e+01
       O  2.14468e+00 -8.35377e+00 -2.35903e+01
       H  1.26080e+00 -8.44886e+00 -2.37917e+01
       H  2.15779e+00 -7.84957e+00 -2.28003e+01
       O  1.57688e+01  3.14602e+01 -4.04521e+00
       H  1.56193e+01  3.14972e+01 -4.98689e+00
       H  1.60642e+01  3.05219e+01 -3.93809e+00
       O -2.01291e+01 -1.10275e+01 -6.45061e+00
       H -1.93590e+01 -1.04389e+01 -6.63594e+00
       H -2.06637e+01 -1.07959e+01 -7.21456e+00
       O -2.83700e+01 -1.49301e+00 -6.51726e-01
       H -2.90909e+01 -9.04143e-01 -2.73209e-01
       H -2.77927e+01 -7.52242e-01 -7.72669e-01
       O -9.75193e+00 -1.00271e+01 -1.71385e+01
       H -9.52937e+00 -1.09282e+01 -1.72140e+01
       H -8.89976e+00 -9.59262e+00 -1.69920e+01
       O -7.59723e+00  9.84399e+00  1.77852e+01
       H -7.67574e+00  1.03895e+01  1.69928e+01
       H -6.65364e+00  9.54674e+00  1.77158e+01
       O  6.53912e+00  2.27327e+01 -6.32060e+00
       H  6.41919e+00 -2.39091e+01 -6.92488e+00
       H  6.98005e+00  2.31280e+01 -5.52489e+00
       O -1.90349e+01 -1.46093e+01 -1.11988e+01
       H -1.95920e+01 -1.54347e+01 -1.13239e+01
       H -1.81779e+01 -1.49084e+01 -1.07768e+01
       O -1.84864e+01  1.63382e+01 -1.04574e+01
       H -1.82717e+01  1.53683e+01 -1.03259e+01
       H -1.94237e+01  1.64418e+01 -1.01549e+01
       O -1.70666e+01 -1.11946e+01 -7.37880e+00
       H -1.76262e+01 -1.14189e+01 -8.11521e+00
       H -1.61621e+01 -1.11699e+01 -7.73726e+00
       O -7.31756e+00 -8.91629e+00 -1.61627e+01
       H -7.16636e+00 -9.55130e+00 -1.53944e+01
       H -6.46922e+00 -8.47381e+00 -1.63473e+01
       O -7.55209e+00 -1.66635e+01 -2.26420e+01
       H -6.66860e+00 -1.68758e+01 -2.30361e+01
       H -7.30301e+00 -1.58851e+01 -2.21221e+01
       O -7.03234e+00 -2.61409e+01 -1.86918e+01
       H -6.21222e+00 -2.54805e+01 -1.86469e+01
       H -6.61935e+00 -2.70740e+01 -1.84652e+01
       O  1.77787e+01 -1.03541e+01 -1.53506e+01
       H  1.81729e+01 -1.11062e+01 -1.48920e+01
       H  1.73782e+01 -1.08854e+01 -1.60653e+01
       O -7.78718e+00 -6.33116e+00 -2.64064e+01
       H -7.35764e+00 -6.41895e+00 -2.55656e+01
       H -7.76360e+00 -5.36097e+00 -2.64802e+01
       O -2.81144e+01 -6.33328e+00 -1.74571e+01
       H -2.90089e+01 -6.52580e+00 -1.70815e+01
       H -2.82446e+01 -5.67502e+00 -1.81582e+01
       O -8.02940e+00 -9.13645e+00 -2.78320e+00
       H -8.64898e+00 -8.31981e+00 -2.73673e+00