4
# CELL(abcABC): 1000.00000  1000.00000  1000.00000    90.00000    90.00000    90.00000  Step:           0  Bead:       0 positions{angstrom}  cell{angstrom}
       O -3.13826e+00  1.07373e+00  3.45931e-01
       H -3.74907e+00  5.34368e-01 -1.60395e-01
       H -2.35888e+00  5.74526e-01  4.13455e-01
       H -3.46326e+00  1.91809e+00  9.41507e-01
4
# CELL(abcABC): 1000.00000  1000.00000  1000.00000    90.00000    90.00000    90.00000  Step:           1  Bead:       0 positions{angstrom}  cell{angstrom}
       O -3.13673e+00  1.07401e+00  3.45390e-01
       H -3.75853e+00  5.28014e-01 -1.56044e-01
       H -2.35692e+00  5.73456e-01  4.14677e-01
       H -3.47997e+00  1.92111e+00  9.44520e-01
4
# CELL(abcABC): 1000.00000  1000.00000  1000.00000    90.00000    90.00000    90.00000  Step:           2  Bead:       0 positions{angstrom}  cell{angstrom}
       O -3.13565e+00  1.07422e+00  3.44830e-01
       H -3.76689e+00  5.24047e-01 -1.50464e-01
       H -2.35000e+00  5.71664e-01  4.16018e-01
       H -3.49569e+00  1.92345e+00  9.46483e-01
4
# CELL(abcABC): 1000.00000  1000.00000  1000.00000    90.00000    90.00000    90.00000  Step:           3  Bead:       0 positions{angstrom}  cell{angstrom}
       O -3.13488e+00  1.07440e+00  3.44184e-01
       H -3.77290e+00  5.21311e-01 -1.42086e-01
       H -2.34088e+00  5.70804e-01  4.18050e-01
       H -3.51112e+00  1.92424e+00  9.46335e-01
4
# CELL(abcABC): 1000.00000  1000.00000  1000.00000    90.00000    90.00000    90.00000  Step:           4  Bead:       0 positions{angstrom}  cell{angstrom}
       O -3.13442e+00  1.07453e+00  3.43624e-01
       H -3.77707e+00  5.19708e-01 -1.33739e-01
       H -2.32979e+00  5.71113e-01  4.19614e-01
       H -3.52534e+00  1.92343e+00  9.45316e-01
4
# CELL(abcABC): 1000.00000  1000.00000  1000.00000    90.00000    90.00000    90.00000  Step:           5  Bead:       0 positions{angstrom}  cell{angstrom}
       O -3.13409e+00  1.07444e+00  3.43133e-01
       H -3.77985e+00  5.20233e-01 -1.24688e-01
       H -2.31921e+00  5.73802e-01  4.22065e-01
       H -3.53835e+00  1.92173e+00  9.41603e-01
4
# CELL(abcABC): 1000.00000  1000.00000  1000.00000    90.00000    90.00000    90.00000  Step:           6  Bead:       0 positions{angstrom}  cell{angstrom}
       O -3.13381e+00  1.07430e+00  3.42735e-01
       H -3.78050e+00  5.22723e-01 -1.15855e-01
       H -2.31014e+00  5.76605e-01  4.23309e-01
       H -3.55115e+00  1.91857e+00  9.37840e-01
4
# CELL(abcABC): 1000.00000  1000.00000  1000.00000    90.00000    90.00000    90.00000  Step:           7  Bead:       0 positions{angstrom}  cell{angstrom}
       O -3.13368e+00  1.07397e+00  3.42231e-01
       H -3.77795e+00  5.26380e-01 -1.05390e-01
       H -2.30291e+00  5.81034e-01  4.25067e-01
       H -3.56303e+00  1.91581e+00  9.33629e-01
4
# CELL(abcABC): 1000.00000  1000.00000  1000.00000    90.00000    90.00000    90.00000  Step:           8  Bead:       0 positions{angstrom}  cell{angstrom}
       O -3.13366e+00  1.07358e+00  3.41901e-01
       H -3.77328e+00  5.30390e-01 -9.58414e-02
       H -2.29683e+00  5.86595e-01  4.25865e-01
       H -3.57404e+00  1.91238e+00  9.28512e-01
4
# CELL(abcABC): 1000.00000  1000.00000  1000.00000    90.00000    90.00000    90.00000  Step:           9  Bead:       0 positions{angstrom}  cell{angstrom}
       O -3.13365e+00  1.07327e+00  3.41602e-01
       H -3.76825e+00  5.32955e-01 -8.61276e-02
       H -2.29216e+00  5.94302e-01  4.26928e-01
       H -3.58398e+00  1.90704e+00  9.22480e-01
4
# CELL(abcABC): 1000.00000  1000.00000  1000.00000    90.00000    90.00000    90.00000  Step:          10  Bead:       0 positions{angstrom}  cell{angstrom}
       O -3.13354e+00  1.07294e+00  3.41619e-01
       H -3.76352e+00  5.33959e-01 -7.88246e-02
       H -2.28979e+00  6.04526e-01  4.26925e-01
       H -3.59276e+00  1.90107e+00  9.14912e-01
4
# CELL(abcABC): 1000.00000  1000.00000  1000.00000    90.00000    90.00000    90.00000  Step:          11  Bead:       0 positions{angstrom}  cell{angstrom}
       O -3.13332e+00  1.07272e+00  3.41996e-01
       H -3.75954e+00  5.33431e-01 -7.50130e-02
       H -2.29089e+00  6.15971e-01  4.26204e-01
       H -3.59921e+00  1.89362e+00  9.05838e-01
4
# CELL(abcABC): 1000.00000  1000.00000  1000.00000    90.00000    90.00000    90.00000  Step:          12  Bead:       0 positions{angstrom}  cell{angstrom}
       O -3.13315e+00  1.07271e+00  3.42671e-01
       H -3.75550e+00  5.30131e-01 -7.40059e-02
       H -2.29356e+00  6.27187e-01  4.24260e-01
       H -3.60332e+00  1.88585e+00  8.96054e-01
4
# CELL(abcABC): 1000.00000  1000.00000  1000.00000    90.00000    90.00000    90.00000  Step:          13  Bead:       0 positions{angstrom}  cell{angstrom}
       O -3.13303e+00  1.07289e+00  3.43534e-01
       H -3.75261e+00  5.24817e-01 -7.52437e-02
       H -2.29548e+00  6.38713e-01  4.22229e-01
       H -3.60620e+00  1.87676e+00  8.85630e-01
4
# CELL(abcABC): 1000.00000  1000.00000  1000.00000    90.00000    90.00000    90.00000  Step:          14  Bead:       0 positions{angstrom}  cell{angstrom}
       O -3.13303e+00  1.07322e+00  3.44525e-01
       H -3.74926e+00  5.16945e-01 -7.82687e-02
       H -2.29655e+00  6.50827e-01  4.20212e-01
       H -3.60837e+00  1.86727e+00  8.74941e-01
4
# CELL(abcABC): 1000.00000  1000.00000  1000.00000    90.00000    90.00000    90.00000  Step:          15  Bead:       0 positions{angstrom}  cell{angstrom}
       O -3.13312e+00  1.07358e+00  3.45408e-01
       H -3.74830e+00  5.06822e-01 -8.08840e-02
       H -2.29705e+00  6.63092e-01  4.18578e-01
       H -3.60752e+00  1.85947e+00  8.65169e-01
4
# CELL(abcABC): 1000.00000  1000.00000  1000.00000    90.00000    90.00000    90.00000  Step:          16  Bead:       0 positions{angstrom}  cell{angstrom}
       O -3.13346e+00  1.07395e+00  3.46331e-01
       H -3.74604e+00  4.95351e-01 -8.49414e-02
       H -2.29578e+00  6.75764e-01  4.17317e-01
       H -3.60553e+00  1.85245e+00  8.55844e-01
4
# CELL(abcABC): 1000.00000  1000.00000  1000.00000    90.00000    90.00000    90.00000  Step:          17  Bead:       0 positions{angstrom}  cell{angstrom}
       O -3.13400e+00  1.07432e+00  3.47225e-01
       H -3.74216e+00  4.84147e-01 -8.92542e-02
       H -2.29310e+00  6.88288e-01  4.15484e-01
       H -3.60361e+00  1.84512e+00  8.47805e-01
4
# CELL(abcABC): 1000.00000  1000.00000  1000.00000    90.00000    90.00000    90.00000  Step:          18  Bead:       0 positions{angstrom}  cell{angstrom}
       O -3.13480e+00  1.07457e+00  3.48040e-01
       H -3.73788e+00  4.74248e-01 -9.33581e-02
       H -2.28659e+00  6.99941e-01  4.13990e-01
       H -3.60166e+00  1.83950e+00  8.40454e-01
4
# CELL(abcABC): 1000.00000  1000.00000  1000.00000    90.00000    90.00000    90.00000  Step:          19  Bead:       0 positions{angstrom}  cell{angstrom}
       O -3.13598e+00  1.07475e+00  3.48729e-01
       H -3.73139e+00  4.65221e-01 -9.65929e-02
       H -2.27844e+00  7.10320e-01  4.12198e-01
       H -3.59757e+00  1.83527e+00  8.34546e-01
4
# CELL(abcABC): 1000.00000  1000.00000  1000.00000    90.00000    90.00000    90.00000  Step:          20  Bead:       0 positions{angstrom}  cell{angstrom}
       O -3.13739e+00  1.07481e+00  3.49350e-01
       H -3.72288e+00  4.57942e-01 -1.00629e-01
       H -2.26951e+00  7.20401e-01  4.10940e-01
       H -3.59261e+00  1.83146e+00  8.29981e-01
4
# CELL(abcABC): 1000.00000  1000.00000  1000.00000    90.00000    90.00000    90.00000  Step:          21  Bead:       0 positions{angstrom}  cell{angstrom}
       O -3.13905e+00  1.07467e+00  3.49917e-01
       H -3.71293e+00  4.51583e-01 -1.05220e-01
       H -2.25803e+00  7.30988e-01  4.10843e-01
       H -3.58778e+00  1.82950e+00  8.25679e-01
4
# CELL(abcABC): 1000.00000  1000.00000  1000.00000    90.00000    90.00000    90.00000  Step:          22  Bead:       0 positions{angstrom}  cell{angstrom}
       O -3.14084e+00  1.07421e+00  3.50462e-01
       H -3.70242e+00  4.45770e-01 -1.08289e-01
       H -2.24456e+00  7.42210e-01  4.09233e-01
       H -3.58323e+00  1.83145e+00  8.21702e-01
4
# CELL(abcABC): 1000.00000  1000.00000  1000.00000    90.00000    90.00000    90.00000  Step:          23  Bead:       0 positions{angstrom}  cell{angstrom}
       O -3.14265e+00  1.07346e+00  3.51099e-01
       H -3.69039e+00  4.41779e-01 -1.11453e-01
       H -2.23153e+00  7.54744e-01  4.07955e-01
       H -3.57965e+00  1.83472e+00  8.16029e-01
4
# CELL(abcABC): 1000.00000  1000.00000  1000.00000    90.00000    90.00000    90.00000  Step:          24  Bead:       0 positions{angstrom}  cell{angstrom}
       O -3.14434e+00  1.07234e+00  3.51674e-01
       H -3.67686e+00  4.37777e-01 -1.14476e-01
       H -2.22054e+00  7.69479e-01  4.06747e-01
       H -3.57723e+00  1.84172e+00  8.11141e-01
4
# CELL(abcABC): 1000.00000  1000.00000  1000.00000    90.00000    90.00000    90.00000  Step:          25  Bead:       0 positions{angstrom}  cell{angstrom}
       O -3.14578e+00  1.07106e+00  3.52116e-01
       H -3.66294e+00  4.33346e-01 -1.16776e-01
       H -2.21313e+00  7.84815e-01  4.05456e-01
       H -3.57582e+00  1.85116e+00  8.07705e-01
4
# CELL(abcABC): 1000.00000  1000.00000  1000.00000    90.00000    90.00000    90.00000  Step:          26  Bead:       0 positions{angstrom}  cell{angstrom}
       O -3.14691e+00  1.06967e+00  3.52523e-01
       H -3.64908e+00  4.28356e-01 -1.20180e-01
       H -2.20904e+00  8.01044e-01  4.03654e-01
       H -3.57577e+00  1.86211e+00  8.06461e-01
4
# CELL(abcABC): 1000.00000  1000.00000  1000.00000    90.00000    90.00000    90.00000  Step:          27  Bead:       0 positions{angstrom}  cell{angstrom}
       O -3.14784e+00  1.06811e+00  3.52973e-01
       H -3.63583e+00  4.24051e-01 -1.24906e-01
       H -2.20856e+00  8.17415e-01  4.01181e-01
       H -3.57477e+00  1.87466e+00  8.06515e-01
4
# CELL(abcABC): 1000.00000  1000.00000  1000.00000    90.00000    90.00000    90.00000  Step:          28  Bead:       0 positions{angstrom}  cell{angstrom}
       O -3.14842e+00  1.06649e+00  3.53406e-01
       H -3.62435e+00  4.17648e-01 -1.30657e-01
       H -2.21073e+00  8.34601e-01  3.98627e-01
       H -3.57485e+00  1.88959e+00  8.07950e-01
4
# CELL(abcABC): 1000.00000  1000.00000  1000.00000    90.00000    90.00000    90.00000  Step:          29  Bead:       0 positions{angstrom}  cell{angstrom}
       O -3.14880e+00  1.06481e+00  3.53913e-01
       H -3.61291e+00  4.11002e-01 -1.38689e-01
       H -2.21635e+00  8.52078e-01  3.95744e-01
       H -3.57472e+00  1.90547e+00  8.10805e-01
4
# CELL(abcABC): 1000.00000  1000.00000  1000.00000    90.00000    90.00000    90.00000  Step:          30  Bead:       0 positions{angstrom}  cell{angstrom}
       O -3.14904e+00  1.06304e+00  3.54449e-01
       H -3.60168e+00  4.04987e-01 -1.46677e-01
       H -2.22353e+00  8.69441e-01  3.92983e-01
       H -3.57494e+00  1.92228e+00  8.13047e-01
4
# CELL(abcABC): 1000.00000  1000.00000  1000.00000    90.00000    90.00000    90.00000  Step:          31  Bead:       0 positions{angstrom}  cell{angstrom}
       O -3.14939e+00  1.06121e+00  3.55112e-01
       H -3.58938e+00  3.98936e-01 -1.55032e-01
       H -2.22997e+00  8.87447e-01  3.89330e-01
       H -3.57523e+00  1.93941e+00  8.14532e-01
4
# CELL(abcABC): 1000.00000  1000.00000  1000.00000    90.00000    90.00000    90.00000  Step:          32  Bead:       0 positions{angstrom}  cell{angstrom}
       O -3.14980e+00  1.05956e+00  3.55667e-01
       H -3.57840e+00  3.90949e-01 -1.63173e-01
       H -2.23429e+00  9.05913e-01  3.86660e-01
       H -3.57540e+00  1.95502e+00  8.16539e-01
4
# CELL(abcABC): 1000.00000  1000.00000  1000.00000    90.00000    90.00000    90.00000  Step:          33  Bead:       0 positions{angstrom}  cell{angstrom}
       O -3.15036e+00  1.05817e+00  3.56175e-01
       H -3.56818e+00  3.82500e-01 -1.70160e-01
       H -2.23552e+00  9.22341e-01  3.84270e-01
       H -3.57541e+00  1.96912e+00  8.17851e-01
4
# CELL(abcABC): 1000.00000  1000.00000  1000.00000    90.00000    90.00000    90.00000  Step:          34  Bead:       0 positions{angstrom}  cell{angstrom}
       O -3.15101e+00  1.05696e+00  3.56835e-01
       H -3.55755e+00  3.74399e-01 -1.77073e-01
       H -2.23532e+00  9.37088e-01  3.82002e-01
       H -3.57593e+00  1.98175e+00  8.16560e-01
4
# CELL(abcABC): 1000.00000  1000.00000  1000.00000    90.00000    90.00000    90.00000  Step:          35  Bead:       0 positions{angstrom}  cell{angstrom}
       O -3.15194e+00  1.05585e+00  3.57545e-01
       H -3.54508e+00  3.67060e-01 -1.84221e-01
       H -2.23289e+00  9.51534e-01  3.80193e-01
       H -3.57617e+00  1.99214e+00  8.14246e-01
4
# CELL(abcABC): 1000.00000  1000.00000  1000.00000    90.00000    90.00000    90.00000  Step:          36  Bead:       0 positions{angstrom}  cell{angstrom}
       O -3.15312e+00  1.05481e+00  3.58318e-01
       H -3.53215e+00  3.60827e-01 -1.91195e-01
       H -2.22715e+00  9.66095e-01  3.77321e-01
       H -3.57609e+00  2.00042e+00  8.11818e-01
4
# CELL(abcABC): 1000.00000  1000.00000  1000.00000    90.00000    90.00000    90.00000  Step:          37  Bead:       0 positions{angstrom}  cell{angstrom}
       O -3.15453e+00  1.05395e+00  3.59018e-01
       H -3.51838e+00  3.56690e-01 -1.95569e-01
       H -2.21858e+00  9.78981e-01  3.73696e-01
       H -3.57602e+00  2.00530e+00  8.08701e-01
4
# CELL(abcABC): 1000.00000  1000.00000  1000.00000    90.00000    90.00000    90.00000  Step:          38  Bead:       0 positions{angstrom}  cell{angstrom}
       O -3.15586e+00  1.05322e+00  3.59921e-01
       H -3.50557e+00  3.53539e-01 -2.00339e-01
       H -2.20890e+00  9.89796e-01  3.69507e-01
       H -3.57744e+00  2.00915e+00  8.03326e-01
4
# CELL(abcABC): 1000.00000  1000.00000  1000.00000    90.00000    90.00000    90.00000  Step:          39  Bead:       0 positions{angstrom}  cell{angstrom}
       O -3.15732e+00  1.05276e+00  3.60752e-01
       H -3.49216e+00  3.50966e-01 -2.03815e-01
       H -2.19916e+00  9.98559e-01  3.65969e-01
       H -3.57739e+00  2.01037e+00  7.97150e-01
4
# CELL(abcABC): 1000.00000  1000.00000  1000.00000    90.00000    90.00000    90.00000  Step:          40  Bead:       0 positions{angstrom}  cell{angstrom}
       O -3.15868e+00  1.05238e+00  3.61420e-01
       H -3.47909e+00  3.49588e-01 -2.05613e-01
       H -2.19086e+00  1.00665e+00  3.63917e-01
       H -3.57707e+00  2.00961e+00  7.90407e-01
4
# CELL(abcABC): 1000.00000  1000.00000  1000.00000    90.00000    90.00000    90.00000  Step:          41  Bead:       0 positions{angstrom}  cell{angstrom}
       O -3.15981e+00  1.05212e+00  3.62048e-01
       H -3.46696e+00  3.49739e-01 -2.07298e-01
       H -2.18478e+00  1.01437e+00  3.62174e-01
       H -3.57732e+00  2.00589e+00  7.83860e-01
4
# CELL(abcABC): 1000.00000  1000.00000  1000.00000    90.00000    90.00000    90.00000  Step:          42  Bead:       0 positions{angstrom}  cell{angstrom}
       O -3.16075e+00  1.05215e+00  3.62741e-01
       H -3.45432e+00  3.48519e-01 -2.09010e-01
       H -2.18205e+00  1.02141e+00  3.60924e-01
       H -3.57790e+00  1.99967e+00  7.75822e-01
4
# CELL(abcABC): 1000.00000  1000.00000  1000.00000    90.00000    90.00000    90.00000  Step:          43  Bead:       0 positions{angstrom}  cell{angstrom}
       O -3.16131e+00  1.05226e+00  3.63454e-01
       H -3.44309e+00  3.48406e-01 -2.10909e-01
       H -2.18313e+00  1.02914e+00  3.60178e-01
       H -3.57910e+00  1.99021e+00  7.67142e-01
4
# CELL(abcABC): 1000.00000  1000.00000  1000.00000    90.00000    90.00000    90.00000  Step:          44  Bead:       0 positions{angstrom}  cell{angstrom}
       O -3.16148e+00  1.05257e+00  3.64170e-01
       H -3.43298e+00  3.47741e-01 -2.13391e-01
       H -2.18797e+00  1.03583e+00  3.59351e-01
       H -3.58173e+00  1.97936e+00  7.59094e-01
4
# CELL(abcABC): 1000.00000  1000.00000  1000.00000    90.00000    90.00000    90.00000  Step:          45  Bead:       0 positions{angstrom}  cell{angstrom}
       O -3.16120e+00  1.05303e+00  3.64934e-01
       H -3.42486e+00  3.47317e-01 -2.16496e-01
       H -2.19534e+00  1.04134e+00  3.58214e-01
       H -3.58694e+00  1.96693e+00  7.51206e-01
4
# CELL(abcABC): 1000.00000  1000.00000  1000.00000    90.00000    90.00000    90.00000  Step:          46  Bead:       0 positions{angstrom}  cell{angstrom}
       O -3.16066e+00  1.05362e+00  3.65701e-01
       H -3.41827e+00  3.47736e-01 -2.19892e-01
       H -2.20505e+00  1.04549e+00  3.57183e-01
       H -3.59239e+00  1.95300e+00  7.43468e-01
4
# CELL(abcABC): 1000.00000  1000.00000  1000.00000    90.00000    90.00000    90.00000  Step:          47  Bead:       0 positions{angstrom}  cell{angstrom}
       O -3.15987e+00  1.05416e+00  3.66539e-01
       H -3.41307e+00  3.48257e-01 -2.22771e-01
       H -2.21547e+00  1.04944e+00  3.55926e-01
       H -3.59966e+00  1.93995e+00  7.34293e-01
4
# CELL(abcABC): 1000.00000  1000.00000  1000.00000    90.00000    90.00000    90.00000  Step:          48  Bead:       0 positions{angstrom}  cell{angstrom}
       O -3.15894e+00  1.05481e+00  3.67293e-01
       H -3.40876e+00  3.48240e-01 -2.24950e-01
       H -2.22513e+00  1.05366e+00  3.54608e-01
       H -3.60909e+00  1.92546e+00  7.25817e-01
4
# CELL(abcABC): 1000.00000  1000.00000  1000.00000    90.00000    90.00000    90.00000  Step:          49  Bead:       0 positions{angstrom}  cell{angstrom}
       O -3.15802e+00  1.05543e+00  3.67835e-01
       H -3.40571e+00  3.48370e-01 -2.25990e-01
       H -2.23122e+00  1.05739e+00  3.54108e-01
       H -3.62065e+00  1.91169e+00  7.18755e-01
4
# CELL(abcABC): 1000.00000  1000.00000  1000.00000    90.00000    90.00000    90.00000  Step:          50  Bead:       0 positions{angstrom}  cell{angstrom}
       O -3.15696e+00  1.05607e+00  3.68359e-01
       H -3.40427e+00  3.49294e-01 -2.26655e-01
       H -2.23557e+00  1.06030e+00  3.54395e-01
       H -3.63449e+00  1.89777e+00  7.10821e-01
4
# CELL(abcABC): 1000.00000  1000.00000  1000.00000    90.00000    90.00000    90.00000  Step:          51  Bead:       0 positions{angstrom}  cell{angstrom}
       O -3.15600e+00  1.05661e+00  3.68766e-01
       H -3.40443e+00  3.50506e-01 -2.27034e-01
       H -2.23595e+00  1.06352e+00  3.55229e-01
       H -3.64919e+00  1.88473e+00  7.03910e-01
4
# CELL(abcABC): 1000.00000  1000.00000  1000.00000    90.00000    90.00000    90.00000  Step:          52  Bead:       0 positions{angstrom}  cell{angstrom}
       O -3.15512e+00  1.05714e+00  3.69144e-01
       H -3.40619e+00  3.52213e-01 -2.26625e-01
       H -2.23218e+00  1.06628e+00  3.55589e-01
       H -3.66525e+00  1.87180e+00  6.97141e-01
4
# CELL(abcABC): 1000.00000  1000.00000  1000.00000    90.00000    90.00000    90.00000  Step:          53  Bead:       0 positions{angstrom}  cell{angstrom}
       O -3.15432e+00  1.05753e+00  3.69343e-01
       H -3.40847e+00  3.55124e-01 -2.26332e-01
       H -2.22489e+00  1.07064e+00  3.57223e-01
       H -3.68293e+00  1.85832e+00  6.92054e-01
4
# CELL(abcABC): 1000.00000  1000.00000  1000.00000    90.00000    90.00000    90.00000  Step:          54  Bead:       0 positions{angstrom}  cell{angstrom}
       O -3.15350e+00  1.05790e+00  3.69127e-01
       H -3.41182e+00  3.57707e-01 -2.24196e-01
       H -2.21536e+00  1.07594e+00  3.60274e-01
       H -3.70208e+00  1.84464e+00  6.90293e-01
4
# CELL(abcABC): 1000.00000  1000.00000  1000.00000    90.00000    90.00000    90.00000  Step:          55  Bead:       0 positions{angstrom}  cell{angstrom}
       O -3.15266e+00  1.05819e+00  3.68723e-01
       H -3.41659e+00  3.60776e-01 -2.20628e-01
       H -2.20451e+00  1.08156e+00  3.64625e-01
       H -3.72150e+00  1.83135e+00  6.88790e-01
4
# CELL(abcABC): 1000.00000  1000.00000  1000.00000    90.00000    90.00000    90.00000  Step:          56  Bead:       0 positions{angstrom}  cell{angstrom}
       O -3.15175e+00  1.05838e+00  3.68175e-01
       H -3.41983e+00  3.64127e-01 -2.16012e-01
       H -2.19416e+00  1.08703e+00  3.68446e-01
       H -3.74305e+00  1.81952e+00  6.89039e-01
4
# CELL(abcABC): 1000.00000  1000.00000  1000.00000    90.00000    90.00000    90.00000  Step:          57  Bead:       0 positions{angstrom}  cell{angstrom}
       O -3.15064e+00  1.05851e+00  3.67467e-01
       H -3.42197e+00  3.67590e-01 -2.10779e-01
       H -2.18654e+00  1.09203e+00  3.73755e-01
       H -3.76617e+00  1.80902e+00  6.89749e-01
4
# CELL(abcABC): 1000.00000  1000.00000  1000.00000    90.00000    90.00000    90.00000  Step:          58  Bead:       0 positions{angstrom}  cell{angstrom}
       O -3.14939e+00  1.05872e+00  3.66690e-01
       H -3.42334e+00  3.69238e-01 -2.06060e-01
       H -2.18105e+00  1.09689e+00  3.80150e-01
       H -3.79015e+00  1.79918e+00  6.90959e-01
4
# CELL(abcABC): 1000.00000  1000.00000  1000.00000    90.00000    90.00000    90.00000  Step:          59  Bead:       0 positions{angstrom}  cell{angstrom}
       O -3.14799e+00  1.05897e+00  3.65767e-01
       H -3.42393e+00  3.69484e-01 -2.01931e-01
       H -2.17821e+00  1.10200e+00  3.88547e-01
       H -3.81460e+00  1.78985e+00  6.93086e-01
4
# CELL(abcABC): 1000.00000  1000.00000  1000.00000    90.00000    90.00000    90.00000  Step:          60  Bead:       0 positions{angstrom}  cell{angstrom}
       O -3.14647e+00  1.05940e+00  3.64894e-01
       H -3.42548e+00  3.67531e-01 -1.98648e-01
       H -2.17763e+00  1.10611e+00  3.95718e-01
       H -3.83783e+00  1.78081e+00  6.96492e-01
4
# CELL(abcABC): 1000.00000  1000.00000  1000.00000    90.00000    90.00000    90.00000  Step:          61  Bead:       0 positions{angstrom}  cell{angstrom}
       O -3.14494e+00  1.06003e+00  3.64070e-01
       H -3.42580e+00  3.63222e-01 -1.96546e-01
       H -2.17865e+00  1.10947e+00  4.01856e-01
       H -3.86081e+00  1.77170e+00  7.01333e-01
4
# CELL(abcABC): 1000.00000  1000.00000  1000.00000    90.00000    90.00000    90.00000  Step:          62  Bead:       0 positions{angstrom}  cell{angstrom}
       O -3.14330e+00  1.06092e+00  3.63400e-01
       H -3.42621e+00  3.56540e-01 -1.95609e-01
       H -2.18336e+00  1.11173e+00  4.07658e-01
       H -3.88170e+00  1.76213e+00  7.05221e-01
4
# CELL(abcABC): 1000.00000  1000.00000  1000.00000    90.00000    90.00000    90.00000  Step:          63  Bead:       0 positions{angstrom}  cell{angstrom}
       O -3.14166e+00  1.06183e+00  3.62580e-01
       H -3.42522e+00  3.49929e-01 -1.94460e-01
       H -2.19013e+00  1.11255e+00  4.13408e-01
       H -3.90187e+00  1.75346e+00  7.11340e-01
4
# CELL(abcABC): 1000.00000  1000.00000  1000.00000    90.00000    90.00000    90.00000  Step:          64  Bead:       0 positions{angstrom}  cell{angstrom}
       O -3.14023e+00  1.06283e+00  3.61704e-01
       H -3.42164e+00  3.43318e-01 -1.92201e-01
       H -2.19720e+00  1.11248e+00  4.19305e-01
       H -3.92118e+00  1.74414e+00  7.17091e-01
4
# CELL(abcABC): 1000.00000  1000.00000  1000.00000    90.00000    90.00000    90.00000  Step:          65  Bead:       0 positions{angstrom}  cell{angstrom}
       O -3.13906e+00  1.06386e+00  3.60821e-01
       H -3.41728e+00  3.37526e-01 -1.90661e-01
       H -2.20309e+00  1.11305e+00  4.25214e-01
       H -3.93816e+00  1.73315e+00  7.23663e-01
4
# CELL(abcABC): 1000.00000  1000.00000  1000.00000    90.00000    90.00000    90.00000  Step:          66  Bead:       0 positions{angstrom}  cell{angstrom}
       O -3.13826e+00  1.06481e+00  3.59803e-01
       H -3.41137e+00  3.34975e-01 -1.87886e-01
       H -2.20729e+00  1.11168e+00  4.31674e-01
       H -3.95259e+00  1.72185e+00  7.30589e-01
4
# CELL(abcABC): 1000.00000  1000.00000  1000.00000    90.00000    90.00000    90.00000  Step:          67  Bead:       0 positions{angstrom}  cell{angstrom}
       O -3.13778e+00  1.06588e+00  3.58743e-01
       H -3.40367e+00  3.32331e-01 -1.85497e-01
       H -2.20870e+00  1.11008e+00  4.38976e-01
       H -3.96646e+00  1.70923e+00  7.37724e-01
4
# CELL(abcABC): 1000.00000  1000.00000  1000.00000    90.00000    90.00000    90.00000  Step:          68  Bead:       0 positions{angstrom}  cell{angstrom}
       O -3.13773e+00  1.06692e+00  3.57800e-01
       H -3.39394e+00  3.30140e-01 -1.83138e-01
       H -2.20726e+00  1.10838e+00  4.45066e-01
       H -3.97841e+00  1.69661e+00  7.44242e-01
4
# CELL(abcABC): 1000.00000  1000.00000  1000.00000    90.00000    90.00000    90.00000  Step:          69  Bead:       0 positions{angstrom}  cell{angstrom}
       O -3.13798e+00  1.06810e+00  3.56665e-01
       H -3.38337e+00  3.26903e-01 -1.79111e-01
       H -2.20428e+00  1.10677e+00  4.52446e-01
       H -3.98796e+00  1.68274e+00  7.50840e-01
4
# CELL(abcABC): 1000.00000  1000.00000  1000.00000    90.00000    90.00000    90.00000  Step:          70  Bead:       0 positions{angstrom}  cell{angstrom}
       O -3.13870e+00  1.06917e+00  3.55542e-01
       H -3.37145e+00  3.24411e-01 -1.76213e-01
       H -2.19947e+00  1.10609e+00  4.59912e-01
       H -3.99332e+00  1.66893e+00  7.58302e-01
4
# CELL(abcABC): 1000.00000  1000.00000  1000.00000    90.00000    90.00000    90.00000  Step:          71  Bead:       0 positions{angstrom}  cell{angstrom}
       O -3.13960e+00  1.07034e+00  3.54518e-01
       H -3.35950e+00  3.20603e-01 -1.75178e-01
       H -2.19443e+00  1.10523e+00  4.67237e-01
       H -3.99606e+00  1.65496e+00  7.66204e-01
4
# CELL(abcABC): 1000.00000  1000.00000  1000.00000    90.00000    90.00000    90.00000  Step:          72  Bead:       0 positions{angstrom}  cell{angstrom}
       O -3.14068e+00  1.07143e+00  3.53483e-01
       H -3.34667e+00  3.16751e-01 -1.74405e-01
       H -2.18950e+00  1.10502e+00  4.75547e-01
       H -3.99656e+00  1.64177e+00  7.73544e-01
4
# CELL(abcABC): 1000.00000  1000.00000  1000.00000    90.00000    90.00000    90.00000  Step:          73  Bead:       0 positions{angstrom}  cell{angstrom}
       O -3.14180e+00  1.07254e+00  3.52566e-01
       H -3.33365e+00  3.12369e-01 -1.74368e-01
       H -2.18589e+00  1.10581e+00  4.84055e-01
       H -3.99550e+00  1.62769e+00  7.79562e-01
4
# CELL(abcABC): 1000.00000  1000.00000  1000.00000    90.00000    90.00000    90.00000  Step:          74  Bead:       0 positions{angstrom}  cell{angstrom}
       O -3.14294e+00  1.07357e+00  3.51856e-01
       H -3.32014e+00  3.07776e-01 -1.76168e-01
       H -2.18442e+00  1.10739e+00  4.91508e-01
       H -3.99237e+00  1.61442e+00  7.85178e-01
4
# CELL(abcABC): 1000.00000  1000.00000  1000.00000    90.00000    90.00000    90.00000  Step:          75  Bead:       0 positions{angstrom}  cell{angstrom}
       O -3.14386e+00  1.07456e+00  3.51187e-01
       H -3.30707e+00  3.02164e-01 -1.78884e-01
       H -2.18623e+00  1.10924e+00  4.99801e-01
       H -3.98905e+00  1.60233e+00  7.90215e-01
4
# CELL(abcABC): 1000.00000  1000.00000  1000.00000    90.00000    90.00000    90.00000  Step:          76  Bead:       0 positions{angstrom}  cell{angstrom}
       O -3.14476e+00  1.07533e+00  3.50412e-01
       H -3.29322e+00  2.97232e-01 -1.80564e-01
       H -2.19100e+00  1.11211e+00  5.08288e-01
       H -3.98379e+00  1.59226e+00  7.95708e-01
4
# CELL(abcABC): 1000.00000  1000.00000  1000.00000    90.00000    90.00000    90.00000  Step:          77  Bead:       0 positions{angstrom}  cell{angstrom}
       O -3.14547e+00  1.07592e+00  3.49597e-01
       H -3.27963e+00  2.93971e-01 -1.82057e-01
       H -2.19883e+00  1.11633e+00  5.17554e-01
       H -3.97828e+00  1.58193e+00  8.00878e-01
4
# CELL(abcABC): 1000.00000  1000.00000  1000.00000    90.00000    90.00000    90.00000  Step:          78  Bead:       0 positions{angstrom}  cell{angstrom}
       O -3.14603e+00  1.07636e+00  3.48926e-01
       H -3.26753e+00  2.90985e-01 -1.84201e-01
       H -2.20778e+00  1.12230e+00  5.26843e-01
       H -3.97259e+00  1.57199e+00  8.04385e-01
4
# CELL(abcABC): 1000.00000  1000.00000  1000.00000    90.00000    90.00000    90.00000  Step:          79  Bead:       0 positions{angstrom}  cell{angstrom}
       O -3.14657e+00  1.07671e+00  3.48186e-01
       H -3.25655e+00  2.89712e-01 -1.84656e-01
       H -2.21652e+00  1.12854e+00  5.36317e-01
       H -3.96620e+00  1.56135e+00  8.07114e-01
4
# CELL(abcABC): 1000.00000  1000.00000  1000.00000    90.00000    90.00000    90.00000  Step:          80  Bead:       0 positions{angstrom}  cell{angstrom}
       O -3.14716e+00  1.07691e+00  3.47292e-01
       H -3.24576e+00  2.89927e-01 -1.84703e-01
       H -2.22504e+00  1.13565e+00  5.47341e-01
       H -3.95907e+00  1.55096e+00  8.10328e-01
4
# CELL(abcABC): 1000.00000  1000.00000  1000.00000    90.00000    90.00000    90.00000  Step:          81  Bead:       0 positions{angstrom}  cell{angstrom}
       O -3.14779e+00  1.07679e+00  3.46412e-01
       H -3.23357e+00  2.92077e-01 -1.85112e-01
       H -2.23360e+00  1.14577e+00  5.59153e-01
       H -3.95272e+00  1.54058e+00  8.12891e-01
4
# CELL(abcABC): 1000.00000  1000.00000  1000.00000    90.00000    90.00000    90.00000  Step:          82  Bead:       0 positions{angstrom}  cell{angstrom}
       O -3.14840e+00  1.07665e+00  3.45397e-01
       H -3.22148e+00  2.94373e-01 -1.84765e-01
       H -2.24064e+00  1.15585e+00  5.71565e-01
       H -3.94807e+00  1.53046e+00  8.16251e-01
4
# CELL(abcABC): 1000.00000  1000.00000  1000.00000    90.00000    90.00000    90.00000  Step:          83  Bead:       0 positions{angstrom}  cell{angstrom}
       O -3.14903e+00  1.07630e+00  3.44359e-01
       H -3.21020e+00  2.97403e-01 -1.84316e-01
       H -2.24624e+00  1.16749e+00  5.84645e-01
       H -3.94381e+00  1.52124e+00  8.19197e-01
4
# CELL(abcABC): 1000.00000  1000.00000  1000.00000    90.00000    90.00000    90.00000  Step:          84  Bead:       0 positions{angstrom}  cell{angstrom}
       O -3.14959e+00  1.07586e+00  3.43358e-01
       H -3.19876e+00  2.99488e-01 -1.85589e-01
       H -2.25141e+00  1.18041e+00  5.98150e-01
       H -3.94113e+00  1.51326e+00  8.22843e-01
4
# CELL(abcABC): 1000.00000  1000.00000  1000.00000    90.00000    90.00000    90.00000  Step:          85  Bead:       0 positions{angstrom}  cell{angstrom}