LAMMPS data file via write_data, version 2 Aug 2023, timestep = 1000, units = real

11135 atoms
17 atom types
7432 bonds
17 bond types
3755 angles
29 angle types
78 dihedrals
36 dihedral types
6 impropers
5 improper types

-24.5 24.5 xlo xhi
-24.5 24.5 ylo yhi
-24.5 24.5 zlo zhi

Masses

1 1.008
2 1.008
3 1.008
4 1.008
5 1.008
6 1.008
7 12.011
8 12.011
9 12.011
10 12.011
11 12.011
12 14.007
13 14.007
14 14.007
15 15.999
16 15.999
17 35.45

Pair Coeffs # lj/charmmfsw/coul/long

1 0.046 0.400014 0.046 0.400014
2 0.034 2.38761 0.034 2.38761
3 0.024 2.38761 0.024 2.38761
4 0.022 2.35197 0.022 2.35197
5 0.046 0.400014 0.046 0.400014
6 0.046 0.400014 0.046 0.400014
7 0.11 3.56359 0.11 3.56359
8 0.07 3.56359 0.07 3.56359
9 0.032 3.56359 0.01 3.38542
10 0.056 3.58141 0.01 3.38542
11 0.078 3.63487 0.01 3.38542
12 0.2 3.29633 0.2 2.76179
13 0.2 3.29633 0.2 3.29633
14 0.2 3.29633 0.2 3.29633
15 0.12 3.02906 0.12 2.49452
16 0.1521 3.15057 0.1521 3.15057
17 0.15 4.04468 0.15 4.04468

Bond Coeffs # harmonic

1 200 1.522
2 222.5 1.538
3 222.5 1.53
4 250 1.49
5 309 1.111
6 322 1.111
7 330 1.08
8 450 0.9572
9 370 1.345
10 320 1.43
11 440 0.997
12 430 1.36
13 480 1
14 200 1.48
15 403 1.04
16 620 1.23
17 650 1.23

Angle Coeffs # charmm

1 50 120 0 0
2 52 108 0 0
3 58.35 113.5 11.16 2.561
4 58.35 113.6 11.16 2.561
5 34 123 0 0
6 35 117 0 0
7 50 120 0 0
8 23 120 0 0
9 26.5 110.1 22.53 2.179
10 26.5 110.1 22.53 2.179
11 35.5 109 5.4 1.802
12 33 109.5 30 2.163
13 35.5 108.4 5.4 1.802
14 50 109.5 0 0
15 35 111 0 0
16 30 109.5 20 2.074
17 44 109.5 0 0
18 55 104.52 0 0
19 80 116.5 0 0
20 50 107 0 0
21 70 113.5 0 0
22 48 108 0 0
23 50 116.5 50 2.45
24 67.7 110 0 0
25 45 107.5 35 2.101
26 80 121 0 0
27 80 122.5 0 0
28 15 121 50 2.44
29 75 122.5 50 2.37

Dihedral Coeffs # charmmfsw

1 0.2 1 180 1
2 0.63 1 180 1
3 0.01 2 0 0
4 0.15 3 0 0
5 0.19 3 0 1
6 1.8 1 0 1
7 0.88 1 180 1
8 0 2 180 0
9 1.9 3 0 0
10 0.1 2 180 1
11 0.15 4 0 0
12 0.1 6 180 0
13 0.19 3 0 1
14 0.19 3 0 1
15 0.1 3 0 1
16 1.6 1 0 1
17 2.5 2 180 0
18 2.5 2 180 1
19 0 1 0 1
20 0 1 0 1
21 1.4 2 180 1
22 0.19 3 0 1
23 0.19 3 0 1
24 0.1 3 0 1
25 0.2 3 0 1
26 0.2 3 0 1
27 0 1 0 1
28 0 1 0 1
29 0 3 0 1
30 0.2 3 0 1
31 0 3 180 1
32 2.5 2 180 1
33 2.5 2 180 1
34 1.4 2 180 1
35 0.05 6 180 1
36 0.2 3 0 1

Improper Coeffs # harmonic

1 45 0
2 45 0
3 20 0
4 4 0
5 120 0

Atoms # full

47 6 16 -0.834 -22.579812017377908 -16.08148232824361 -19.228138421799304 0 0 0
48 6 6 0.417 -23.156955672237014 -15.401850905582657 -19.63583213909218 0 0 0
49 6 6 0.417 -22.503011329237463 -16.69711638557854 -19.984611436089587 0 0 0
66 12 6 0.417 -18.261353425799847 -19.230061664303662 -16.866061743569784 0 0 0
67 12 6 0.417 -18.413921563432638 -20.721532025152886 -16.832075987698726 0 0 0
73 14 6 0.417 -21.54925965818529 -18.033848240999166 -16.5038288493451 0 0 0
76 15 6 0.417 -18.165087790578433 -16.612326046979934 -17.18391842411641 0 0 0
218 63 16 -0.834 -18.992957041440224 -18.00979805084545 -17.97054665216691 0 0 0
219 63 6 0.417 -19.9387106641736 -18.228772283236083 -18.075274383234518 0 0 0
220 63 6 0.417 -18.732150177379243 -17.920143489163284 -18.913538305295415 0 0 0
233 68 16 -0.834 -17.95173655172059 -20.793034034810017 -23.17428367587407 0 0 0
234 68 6 0.417 -18.30644569951886 -21.103438933119964 -22.315196502361513 0 0 0
235 68 6 0.417 -18.401121428491095 -19.92532110537258 -23.260358076884884 0 0 0
236 69 16 -0.834 -23.612835985886328 -20.531021646833263 -17.898789433682797 0 0 0
237 69 6 0.417 -23.555596580558984 -20.962967648871626 -17.018106950109978 0 0 0
238 69 6 0.417 -22.875463041690182 -19.892282763353702 -17.853023362801064 0 0 0
239 70 16 -0.834 -22.4737559133089 -18.270404549970454 -20.987275218281084 0 0 0
240 70 6 0.417 -22.215524005946094 -18.179157704505066 -21.92817276651474 0 0 0
241 70 6 0.417 -23.31522378445953 -18.763381388999 -21.09318868052206 0 0 0
248 73 16 -0.834 -21.711117120848275 -18.49755840466413 -18.32401337755978 0 0 0
249 73 6 0.417 -22.09492238827556 -17.593969796009496 -18.378259769812807 0 0 0
250 73 6 0.417 -21.780197385084204 -18.722187099460715 -19.276569573229782 0 0 0
251 74 16 -0.834 -18.364127432262446 -17.83333360036077 -20.63372304335347 0 0 0
253 74 6 0.417 -18.60931375793633 -18.161372733105626 -21.52451318095489 0 0 0
257 76 16 -0.834 -19.30745681087509 -18.410308657079185 -23.213962084621446 0 0 0
258 76 6 0.417 -20.283891224941975 -18.374710884703365 -23.30122208531074 0 0 0
259 76 6 0.417 -19.06129483743005 -17.852551442645805 -23.981714036512777 0 0 0
269 80 16 -0.834 -18.860000330824043 -22.010034167785232 -17.983933156029423 0 0 0
270 80 6 0.417 -19.486247265043033 -22.765058898062478 -17.960915997035315 0 0 0
271 80 6 0.417 -17.992427201954193 -22.45845429713334 -17.879181576552778 0 0 0
383 118 16 -0.834 -18.652928992452107 -21.835847833915675 -20.735135382033008 0 0 0
384 118 6 0.417 -18.99069769728461 -21.740598123705468 -19.82243002278852 0 0 0
385 118 6 0.417 -17.692969727388515 -21.743523336579155 -20.546657626661858 0 0 0
395 122 16 -0.834 -21.99386848390677 -17.91929616322658 -23.703504443734285 0 0 0
396 122 6 0.417 -21.930719249772828 -16.9398296800195 -23.771488106808423 0 0 0
397 122 6 0.417 -22.633278630753647 -18.09928113529094 -24.41915695909506 0 0 0
569 180 16 -0.834 -23.95976252732869 -22.022159930436136 -20.188279315700512 0 0 0
571 180 6 0.417 -23.713359055782426 -21.568229552144413 -19.355391635249887 0 0 0
626 199 16 -0.834 -20.565021381074835 -24.17944400214201 -17.9958774388131 0 0 0
1725 565 6 0.417 -5.877604774093522 -0.014243044288202736 -11.211223942407313 0 0 0
10381 3450 6 0.417 18.54570009017372 -4.012908529933369 -24.07284010888839 0 0 1
629 200 16 -0.834 -22.703768881289506 -24.206039230018966 -21.37082535130447 0 0 0
631 200 6 0.417 -23.10609754485637 -23.37386618355229 -21.03386484943902 0 0 0
657 209 6 0.417 -18.12937420192897 -22.223523299327397 -8.446238171138043 0 0 0
2843 938 16 -0.834 -4.6104426004134025 -0.9575493613388942 -8.349341433335114 0 0 0
646 205 6 0.417 -19.451719678460133 -23.28910098419207 -21.41410666240049 0 0 0
68 13 16 -0.834 -10.682291073335993 -19.81520571270395 -17.79266498385467 0 0 0
8895 2955 6 0.417 -21.816367011384628 -6.111148665585178 -24.378995733269274 0 0 1
1740 570 6 0.417 -19.08050036108978 -0.09217446418560515 -14.306499398591747 0 0 0
212 61 16 -0.834 -15.145383659735405 -20.92674140940919 -22.55685439208236 0 0 0
213 61 6 0.417 -15.433866535080432 -21.195379126797203 -21.65985013877941 0 0 0
214 61 6 0.417 -16.01643955609215 -20.84611890855812 -22.99159233196152 0 0 0
221 64 16 -0.834 -13.505179710213826 -17.531073512838308 -19.928196887726745 0 0 0
222 64 6 0.417 -13.499606177183509 -16.56291600289229 -20.1049739241278 0 0 0
223 64 6 0.417 -12.801426526804088 -17.809615349389382 -20.549807499041798 0 0 0
227 66 16 -0.834 -12.895367751721386 -18.257507587660196 -17.356370871596013 0 0 0
228 66 6 0.417 -13.076287813718816 -17.934573941019593 -18.264826799402684 0 0 0
229 66 6 0.417 -12.153827158880484 -18.875739630793234 -17.54058394728768 0 0 0
245 72 16 -0.834 -16.56813789466206 -20.408836632029494 -14.01174789981027 0 0 0
246 72 6 0.417 -17.083743526322518 -20.221451726732816 -14.826078164300785 0 0 0
252 74 6 0.417 -17.48132038243094 -18.22350866101204 -20.485293924822003 0 0 0
281 84 16 -0.834 -12.530984867787453 -20.620760019608102 -21.50216798669145 0 0 0
282 84 6 0.417 -13.472051999136866 -20.58022749923154 -21.759642220448004 0 0 0
283 84 6 0.417 -12.254368061256846 -19.68387146416105 -21.554426842833095 0 0 0
287 86 16 -0.834 -11.45063251839949 -18.064323072271225 -21.71633755996248 0 0 0
289 86 6 0.417 -11.210365015604388 -17.117646196380836 -21.811986593089145 0 0 0
365 112 16 -0.834 -11.801830638746738 -21.935175054586647 -19.141492173100097 0 0 0
366 112 6 0.417 -12.045990882024546 -21.56217643041042 -20.01657820125034 0 0 0
367 112 6 0.417 -11.428281656852313 -21.14051351333037 -18.699638414141862 0 0 0
371 114 16 -0.834 -15.942714898981672 -18.655016017467897 -19.251654029913418 0 0 0
372 114 6 0.417 -15.100756154583667 -18.250262937311447 -19.55546898410547 0 0 0
373 114 6 0.417 -15.951461481557086 -18.36101371816824 -18.319238112959916 0 0 0
377 116 16 -0.834 -13.559140559858404 -23.258880115767287 -17.47491762600943 0 0 0
378 116 6 0.417 -13.239785272833446 -22.947235285679564 -16.603341561941104 0 0 0
379 116 6 0.417 -12.96087272749514 -22.774729897602715 -18.086225437536353 0 0 0
2834 935 16 -0.834 10.468890286505317 -0.13459751647644988 -18.788725710319333 0 0 0
760 243 6 0.417 6.132988784982453 -16.90349863005531 -24.450259359163343 0 0 0
632 201 16 -0.834 -16.264182457615536 -22.847487294161304 -17.56592096375082 0 0 0
633 201 6 0.417 -15.315485272734797 -23.100897726717758 -17.6075472146961 0 0 0
634 201 6 0.417 -16.420503546766092 -22.97845276463763 -16.60509199024363 0 0 0
636 202 6 0.417 -9.901140445483541 -23.698747559424007 -16.619085980470885 0 0 0
1403 458 16 -0.834 23.885560660645687 -20.554158669670876 -8.678085661350062 0 0 0
639 203 6 0.417 -10.504027199922199 -23.14255590723886 -18.769416932599523 0 0 0
647 206 16 -0.834 -16.106182204255504 -21.308872665272414 -19.953968630628477 0 0 0
648 206 6 0.417 -16.040487292293154 -21.81641847513236 -19.119275323677968 0 0 0
649 206 6 0.417 -16.019625498253824 -20.385798685231006 -19.62594236521685 0 0 0
1538 503 16 -0.834 23.6669801707026 -8.194205927741438 -24.479420505052225 0 0 1
8715 2895 6 0.417 -12.370159771363799 -20.980310078487175 -23.509368920356906 0 0 1
69 13 6 0.417 -10.339734565461239 -20.00632754005958 -16.886724033396003 0 0 0
70 13 6 0.417 -9.860513777401874 -19.454842656006445 -18.187252008063574 0 0 0
2307 759 6 0.417 -21.531881326758985 -4.870488940114344 -8.312289271879322 0 0 0
644 205 16 -0.834 -19.90817995296328 -24.04399495031159 -21.842323311501776 0 0 0
163 44 6 0.417 -6.9653586925423525 -24.366945095440492 -23.24467592210109 0 0 0
288 86 6 0.417 -10.622944177826657 -18.476786011073468 -22.04392466110507 0 0 0
305 92 16 -0.834 -7.123704168596091 -18.304257741228273 -21.104897780895765 0 0 0
306 92 6 0.417 -7.883494449538415 -18.560565718471924 -21.674748117420847 0 0 0
307 92 6 0.417 -7.002883887918049 -17.374104153845114 -21.40750723500898 0 0 0
521 164 16 -0.834 -9.127535136576837 -19.099205289113424 -22.837110411392313 0 0 0
522 164 6 0.417 -9.002509872256802 -18.742233244886357 -23.738074660500335 0 0 0
523 164 6 0.417 -9.049392001459754 -20.05289584308974 -23.050230871524686 0 0 0
524 165 16 -0.834 -8.080571038049584 -16.469771822696902 -17.645924381777007 0 0 0
525 165 6 0.417 -8.134723821715864 -17.41786131143291 -17.8933277125024 0 0 0
526 165 6 0.417 -8.499383023872358 -16.483097313103524 -16.757725939601233 0 0 0
1855 608 6 0.417 -10.54134072262808 -0.053625667419997 -9.76306599065605 0 0 0
537 169 6 0.417 -7.733442697666564 -21.917770127603866 -23.92993393473735 0 0 0
1057 342 6 0.417 8.85004515589732 -8.075498720592314 -24.20298544098319 0 0 0
539 170 16 -0.834 -8.177328208007504 -19.068982635368712 -18.642016782169332 0 0 0
540 170 6 0.417 -7.8887330237921605 -19.99932541614529 -18.514682996796708 0 0 0
541 170 6 0.417 -7.777459916159936 -18.855724674303474 -19.50737194354155 0 0 0
554 175 16 -0.834 -7.658142527981508 -21.794621209324426 -18.35951998863647 0 0 0
555 175 6 0.417 -7.295012661576076 -22.0545375941841 -17.48666335683982 0 0 0
556 175 6 0.417 -8.426331145215716 -22.40487829003699 -18.412609145603362 0 0 0
566 179 16 -0.834 -6.226332639029012 -22.71874238213287 -23.433264791429266 0 0 0
567 179 6 0.417 -5.42597842535933 -22.642521143774427 -23.99521545338597 0 0 0
568 179 6 0.417 -6.026266946334581 -22.035150286244804 -22.760679058420937 0 0 0
623 198 16 -0.834 -6.3203856259178055 -22.78106575108421 -16.15282104542522 0 0 0
624 198 6 0.417 -5.82484711310928 -23.601664764382715 -16.255438436625727 0 0 0
625 198 6 0.417 -5.602499541151668 -22.112386211043 -16.269267783440082 0 0 0
638 203 16 -0.834 -9.72628183579446 -23.628716091918115 -18.41971877889657 0 0 0
8680 2883 6 0.417 -18.687229393323555 -22.192822283910044 -24.108469375600556 0 0 1
683 218 16 -0.834 -4.789951943315129 -17.8446476579885 -19.447906875622458 0 0 0
684 218 6 0.417 -5.020490341307348 -16.950635737519786 -19.11990867792337 0 0 0
685 218 6 0.417 -5.548740344848508 -18.0325245375591 -20.024952782817714 0 0 0
872 281 16 -0.834 -4.262616721460418 -21.08261040658898 -16.53444084006431 0 0 0
874 281 6 0.417 -3.833239396492512 -20.41420013195776 -17.08919419700506 0 0 0
875 282 16 -0.834 -5.643216574450271 -20.589033214223875 -21.76432290658559 0 0 0
876 282 6 0.417 -5.067468939787533 -20.063759052391767 -22.369189929819928 0 0 0
877 282 6 0.417 -6.201280410228525 -19.85823500946304 -21.43445306688297 0 0 0
1033 334 6 0.417 -4.97394942257624 -18.664404226792946 -24.297104621908723 0 0 0
1208 393 16 -0.834 -5.68085479541222 -22.721769111896766 -20.04380737088884 0 0 0
1209 393 6 0.417 -6.360175484005664 -22.384718112071667 -19.42057486331121 0 0 0
1210 393 6 0.417 -5.629386865330411 -21.95986099257788 -20.660150490394372 0 0 0
1268 413 16 -0.834 -3.271367157515711 -24.012488253310533 -19.838345103604684 0 0 0
1270 413 6 0.417 -4.103675893501168 -23.499997089635105 -19.936061069631545 0 0 0
9262 3077 6 0.417 -3.146213468440454 -21.823627558509422 -24.479738899379992 0 0 1
702 224 6 0.417 0.9529556586522709 -19.71892883023966 -16.74700303752059 0 0 0
703 224 6 0.417 1.1873362582682054 -21.172238373638052 -16.965867896291375 0 0 0
709 226 6 0.417 -2.7928818565317317 -18.415862746802205 -16.5918745366135 0 0 0
712 227 6 0.417 0.714744732786989 -17.179525858647832 -17.04625073196863 0 0 0
854 275 16 -0.834 -0.06976954595127002 -18.61075670273767 -17.786400747781517 0 0 0
855 275 6 0.417 -1.0250688738645948 -18.766034976958974 -17.907783367334165 0 0 0
856 275 6 0.417 0.25085435213587 -18.78439263812596 -18.700984973624127 0 0 0
869 280 16 -0.834 -1.4272446047502805 -21.395936921890076 -23.843018402776988 0 0 0
870 280 6 0.417 -0.8275653644477244 -21.262707556458746 -23.079688733953535 0 0 0
871 280 6 0.417 -1.4062102691168268 -20.501178845110516 -24.253485343748356 0 0 0
881 284 16 -0.834 4.00297696061074 -20.729624761221693 -17.267656069345826 0 0 0
882 284 6 0.417 3.216506359807696 -20.48711874537889 -16.74554714337396 0 0 0
884 285 16 -0.834 -2.8145880281437585 -19.226704156652847 -18.21840958549437 0 0 0
885 285 6 0.417 -3.5144421233336214 -18.66006192052933 -18.634802141433234 0 0 0
886 285 6 0.417 -2.693134453355645 -19.87446097975969 -18.92538535937378 0 0 0
887 286 16 -0.834 0.8260379013260719 -19.10050649183281 -20.318262020801125 0 0 0
888 286 6 0.417 1.7908620614205748 -19.134823598375615 -20.135467518217062 0 0 0
889 286 6 0.417 0.791743838540315 -18.52800505997532 -21.115345768671318 0 0 0
893 288 16 -0.834 0.7362819943991986 -17.52249143323561 -22.573331171952216 0 0 0
894 288 6 0.417 0.3073184731647884 -17.336799929258824 -23.431264362880114 0 0 0
895 288 6 0.417 1.6740756236133998 -17.407475046470303 -22.84332257766685 0 0 0
905 292 16 -0.834 1.0100222525454488 -22.231747150924022 -18.272758367410326 0 0 0
906 292 6 0.417 0.1264408232505191 -22.65449149233316 -18.293416197788996 0 0 0
907 292 6 0.417 1.5869487351903735 -23.02416335721369 -18.29903511190071 0 0 0
1007 326 16 -0.834 3.4958630635129078 -19.41359175942944 -19.66742326147789 0 0 0
1009 326 6 0.417 3.69756883518798 -19.77044292776157 -18.775490108323037 0 0 0
1019 330 16 -0.834 0.34388531104509606 -21.496896152442645 -21.644137984373607 0 0 0
1020 330 6 0.417 0.338221873642419 -20.71291280883704 -21.056756631044454 0 0 0
1021 330 6 0.417 1.2818894480891783 -21.757365291295912 -21.542953439604684 0 0 0
1031 334 16 -0.834 -4.51361164867646 -18.805009035443604 -23.45269086583134 0 0 0
1032 334 6 0.417 -4.236117711576084 -17.89107581898817 -23.24183637444942 0 0 0
1082 351 16 -0.834 3.149684312488827 -16.833348388635066 -23.608672989187884 0 0 0
1084 351 6 0.417 4.092830911115835 -16.579732624360958 -23.51300150647584 0 0 0
1265 412 16 -0.834 -1.3194744958420421 -23.58680054134318 -18.023207654832774 0 0 0
1266 412 6 0.417 -2.119659769014209 -23.65536391126485 -18.588766440743242 0 0 0
3310 1093 6 0.417 23.088272836380654 -3.822195496312741 -15.072369053197384 0 0 0
1269 413 6 0.417 -2.765287278030691 -23.76510287317079 -20.640438066852735 0 0 0
1271 414 16 -0.834 2.7587603074576994 -24.31714654215556 -18.11221532646197 0 0 0
1272 414 6 0.417 3.4978922000564046 -23.882242853728542 -18.576399921524786 0 0 0
1273 414 6 0.417 3.130701065918283 -24.38435549484635 -17.214711429425467 0 0 0
1283 418 16 -0.834 -1.4240641896051671 -23.615954480175812 -21.859330433223825 0 0 0
1284 418 6 0.417 -1.6544082797679824 -23.301758062875702 -22.74620345742838 0 0 0
1285 418 6 0.417 -0.7391228031757457 -22.954715793633266 -21.622397564351395 0 0 0
1286 419 16 -0.834 3.13185995339886 -21.69238349311072 -21.15601237767992 0 0 0
1287 419 6 0.417 3.577564028174387 -22.304866916539503 -20.544254317609255 0 0 0
1288 419 6 0.417 3.2198002264689345 -20.85500236765867 -20.64955781475444 0 0 0
704 225 16 -0.834 7.958573800328532 -19.617886218123793 -17.912169144211326 0 0 0
705 225 6 0.417 8.239506660366647 -19.76027712325667 -16.976082762783015 0 0 0
706 225 6 0.417 8.79002668608812 -19.2365744063328 -18.266046939822203 0 0 0
758 243 16 -0.834 5.793890348031801 -16.11402545060207 -23.976227315502413 0 0 0
1876 615 6 0.417 -12.373611181510007 -0.16539912194338063 -17.48568121616967 0 0 0
1051 340 6 0.417 4.460036559717439 -9.215855281861192 -24.43303327615192 0 0 0
1175 382 16 -0.834 10.653640880544819 -21.345776042243653 -24.361974438022255 0 0 0
848 273 16 -0.834 4.322842401044672 -21.073465304618708 -23.55794633581144 0 0 0
849 273 6 0.417 3.880285722693351 -21.39717680596757 -22.742002454239888 0 0 0
850 273 6 0.417 3.5766120710969727 -21.027026357008214 -24.165635598312615 0 0 0
857 276 16 -0.834 5.522900276270807 -17.541938320713967 -19.822925343699698 0 0 0
858 276 6 0.417 5.409291910698501 -16.596918455772933 -20.071377351094814 0 0 0
859 276 6 0.417 6.288813581836396 -17.774125557555813 -20.38578451521002 0 0 0
863 278 16 -0.834 5.82113888431653 -18.059859136045418 -17.11235958863096 0 0 0
864 278 6 0.417 5.625568599203392 -17.711226674308598 -18.006606172116854 0 0 0
865 278 6 0.417 6.527789945029297 -18.69581891424491 -17.355430373844634 0 0 0
917 296 16 -0.834 6.586798179833521 -20.504415650620384 -21.960469160787 0 0 0
918 296 6 0.417 5.737083265560402 -20.488033471092187 -22.43699350494584 0 0 0
919 296 6 0.417 6.818650451364512 -19.553470172859104 -21.900661391629928 0 0 0
923 298 16 -0.834 7.5983926559465536 -17.987600691879756 -21.68938770072661 0 0 0
924 298 6 0.417 8.449920020165344 -18.36030431991635 -22.004693050525695 0 0 0
925 298 6 0.417 7.741220580701262 -17.03696483093126 -21.874451666712766 0 0 0
1001 324 16 -0.834 7.200548987451479 -21.667413957955514 -19.575741284819795 0 0 0
1002 324 6 0.417 7.079358844535601 -21.262979652941542 -20.465150486021383 0 0 0
1003 324 6 0.417 7.435138742668419 -20.8812577632478 -19.03123804357135 0 0 0
1008 326 6 0.417 4.1867040473689325 -18.718075902370394 -19.743958820887418 0 0 0
1013 328 16 -0.834 4.790731201679339 -22.739784424315854 -18.99250501672536 0 0 0
1014 328 6 0.417 4.50422415587088 -22.025869072398727 -18.37889277430857 0 0 0
1015 328 6 0.417 5.672834700929082 -22.392683152509107 -19.26194577360847 0 0 0
1162 377 6 0.417 10.039742293569004 -19.97559078614081 -23.095733623352814 0 0 0
1163 378 16 -0.834 10.216178699418682 -16.13724051686903 -17.799207255417947 0 0 0
1164 378 6 0.417 10.245581641485394 -17.09924122228626 -17.986271847687405 0 0 0
1165 378 6 0.417 9.80208739479653 -16.12126609529503 -16.909789728999534 0 0 0
1651 540 6 0.417 17.541141852147973 -24.36839676059304 -17.658338919640663 0 0 0
4012 1327 6 0.417 11.423927867269498 -23.498242224966024 -8.345008198025976 0 1 0
1178 383 16 -0.834 10.467613930228978 -18.79025202945939 -18.665354867172823 0 0 0
1195 388 6 0.417 10.542535772575862 -22.09363342505811 -18.390886121756136 0 0 0
1275 415 6 0.417 8.44001644617231 -23.219361648497095 -16.897962797678158 0 0 0
1276 415 6 0.417 7.340186369019135 -24.151927519640054 -16.50861967402029 0 0 0
1277 416 16 -0.834 9.213350207335946 -23.214175051201032 -18.549288978222986 0 0 0
1278 416 6 0.417 8.492837684016733 -22.760178090236458 -19.03908746958561 0 0 0
1279 416 6 0.417 9.193132470241453 -24.107208603831083 -18.94963384418127 0 0 0
9093 3021 6 0.417 7.280538769479294 -21.080092603341832 -23.93742753580686 0 0 1
799 256 6 0.417 12.276930566392878 -23.832841937528727 -23.393004663656896 0 0 0
941 304 16 -0.834 11.781125405597304 -18.151566608976655 -21.041796191293972 0 0 0
942 304 6 0.417 11.084772859370062 -18.45179701467862 -21.667881462121233 0 0 0
943 304 6 0.417 11.934266475265508 -17.247073212015934 -21.401842262990282 0 0 0
1160 377 16 -0.834 9.900719477226618 -19.033877025518596 -22.870732166889493 0 0 0
1161 377 6 0.417 10.020519057222893 -18.655556938876177 -23.76515033259743 0 0 0
1176 382 6 0.417 11.537340594374632 -21.672545249964212 -24.09187340779258 0 0 0
1179 383 6 0.417 10.863859395039503 -19.666227062911894 -18.46947004741694 0 0 0
1180 383 6 0.417 10.931393261819274 -18.559013155000645 -19.49372969764252 0 0 0
1193 388 16 -0.834 11.27766226557739 -21.452835540252327 -18.2659212571157 0 0 0
1194 388 6 0.417 11.410272850451374 -21.524987725469266 -17.299061417347993 0 0 0
1205 392 16 -0.834 13.131575757345141 -22.269946966798972 -23.56076598638682 0 0 0
1206 392 6 0.417 13.962001481871424 -22.098071159375593 -24.056821763168784 0 0 0
1207 392 6 0.417 13.256301712554444 -21.657026013700147 -22.806060805590683 0 0 0
1262 411 16 -0.834 11.72816671196789 -21.320766424440663 -15.51383219905312 0 0 0
1263 411 6 0.417 12.251511559301688 -21.324665255237246 -14.696033461097006 0 0 0
1264 411 6 0.417 12.20121388253141 -20.59091017636911 -15.979576436104445 0 0 0
1316 429 16 -0.834 13.803469307731776 -17.97107214768335 -18.985318127706655 0 0 0
1317 429 6 0.417 13.55606415817859 -17.037097261116692 -18.810233113031003 0 0 0
1318 429 6 0.417 13.21836646654152 -18.15316713831493 -19.741603980695732 0 0 0
1330 433 6 0.417 15.878789947148682 -17.7844963156695 -16.60320746677783 0 0 0
1424 465 16 -0.834 13.392378331895948 -19.54113258769557 -16.644913584223612 0 0 0
1426 465 6 0.417 13.583029931916418 -18.973090887620398 -17.413809029833054 0 0 0
1427 466 16 -0.834 13.410562184582457 -20.34449781103996 -21.609968822592844 0 0 0
1428 466 6 0.417 13.91145645023822 -19.803551141718142 -22.26819969314406 0 0 0
1429 466 6 0.417 12.782827076002194 -19.658268516230883 -21.315855266113754 0 0 0
1433 468 16 -0.834 16.33823018553933 -18.63609998161466 -18.112850071735 0 0 0
1434 468 6 0.417 15.494976677466893 -18.4769587946878 -18.593610519463564 0 0 0
1435 468 6 0.417 16.545483109349853 -19.559978263891242 -18.354001007450044 0 0 0
1449 473 6 0.417 17.007188472327233 -21.975738554607023 -18.100495420829596 0 0 0
1523 498 16 -0.834 14.279237834690415 -18.628281006092685 -23.48234396638692 0 0 0
1524 498 6 0.417 14.586266302350351 -17.710316857445406 -23.34517046666044 0 0 0
1525 498 6 0.417 13.874754707765948 -18.55480392066078 -24.367148187296134 0 0 0
1613 528 16 -0.834 13.300127443442504 -22.470127074147676 -19.87084007238734 0 0 0
1614 528 6 0.417 12.66253058611845 -22.07585361317396 -19.236349950553812 0 0 0
1615 528 6 0.417 13.4159520797428 -21.713238833790097 -20.485680211722332 0 0 0
1649 540 16 -0.834 16.785522059761572 -23.74715559524635 -17.56988974619795 0 0 0
1650 540 6 0.417 16.19571613460965 -24.079166068892054 -18.279627036103598 0 0 0
3309 1093 6 0.417 21.734029703770176 -4.370664104471102 -14.716606392869723 0 0 0
1652 541 16 -0.834 15.374307206269732 -24.293936117029713 -19.870685041194104 0 0 0
1653 541 6 0.417 15.928503194560848 -23.975166381681657 -20.61373211597899 0 0 0
1654 541 6 0.417 14.648990627245695 -23.63215444588209 -19.86419622404867 0 0 0
1661 544 16 -0.834 17.26088207109644 -23.631291175727554 -21.793744966282862 0 0 0
1662 544 6 0.417 17.335840185739507 -23.65554369202815 -22.756570019002023 0 0 0
3993 1321 6 0.417 12.600193546030274 -24.09550973616094 -20.183387072285214 0 1 0
570 180 6 0.417 -24.238940936805086 -21.25475184489483 -20.72744538060382 0 0 0
1326 432 6 0.417 19.079719308494873 -18.97098005614148 -17.18842233831935 0 0 0
1327 432 6 0.417 18.53550529374733 -20.372298536089254 -17.138317346516374 0 0 0
1333 434 6 0.417 19.801708896494862 -16.526083382350308 -17.041165818661714 0 0 0
1355 442 16 -0.834 24.370542102894614 -15.754458781074652 -23.088501036953016 0 0 0
1357 442 6 0.417 -23.678846462770384 -15.683124398309557 -23.315012103204783 1 0 0
1406 459 16 -0.834 24.12450208515822 -19.593410659578886 -21.210178028603277 0 0 0
1407 459 6 0.417 23.636960676325735 -19.343774401037887 -20.395246335649112 0 0 0
1408 459 6 0.417 23.473245378316847 -19.40848485246327 -21.89866526911145 0 0 0
1412 461 16 -0.834 18.870846453025745 -17.555949104633093 -18.19418722018192 0 0 0
1413 461 6 0.417 17.90511100670221 -17.7289933064455 -18.209384350961358 0 0 0
1414 461 6 0.417 19.083150868326356 -17.65702733761183 -19.14626910387829 0 0 0
1421 464 16 -0.834 18.111171372675578 -20.772170486076938 -23.863745308793266 0 0 0
1422 464 6 0.417 18.196783091077574 -20.877879608350717 -22.89405610652715 0 0 0
1423 464 6 0.417 18.473508621370858 -19.874194147955567 -23.97518661760388 0 0 0
1430 467 16 -0.834 21.76772600250244 -19.6900605109464 -16.305556703410183 0 0 0
1436 469 16 -0.834 19.312832391544603 -18.10268820670923 -20.863836037812046 0 0 0
1437 469 6 0.417 19.870946448521146 -18.885005746390636 -20.674114750477813 0 0 0
1438 469 6 0.417 19.214541204890157 -18.19233424908651 -21.83717006656653 0 0 0
1439 470 16 -0.834 19.3967987564472 -18.122979104934604 -23.614477024414626 0 0 0
1440 470 6 0.417 19.028099203100112 -17.486940166229527 -24.2543142177775 0 0 0
1441 470 6 0.417 20.340317083995174 -17.859728717923147 -23.643910041288354 0 0 0
1448 473 16 -0.834 17.561146093704973 -21.240227624383337 -18.43575929864142 0 0 0
1450 473 6 0.417 18.400872878457513 -21.755484348047794 -18.538554199352287 0 0 0
1505 492 16 -0.834 23.05183563445384 -19.252560422357433 -18.695736566336496 0 0 0
1506 492 6 0.417 23.891419485092573 -19.664536606694874 -18.401986579247495 0 0 0
1507 492 6 0.417 22.587587274281447 -19.209410439878045 -17.832869503389887 0 0 0
1511 494 16 -0.834 22.422460589230358 -22.373012681354734 -18.944138652705963 0 0 0
1512 494 6 0.417 22.66024229570632 -22.340580255125662 -17.99170154154101 0 0 0
1513 494 6 0.417 23.294709583588876 -22.467644445499023 -19.366468567828786 0 0 0
1517 496 16 -0.834 18.434244870352117 -21.199218144201808 -21.150367999807703 0 0 0
1518 496 6 0.417 17.941213145055944 -21.02497035083906 -20.328395803736427 0 0 0
1519 496 6 0.417 19.34651537040925 -21.01949973545705 -20.846718275194135 0 0 0
1562 511 16 -0.834 21.935899251870914 -16.96265241576633 -23.7434805180665 0 0 0
1564 511 6 0.417 22.825786674672045 -16.619604175925176 -23.512315102762912 0 0 0
1655 542 16 -0.834 19.72951289775221 -22.810999660000917 -18.601137100550037 0 0 0
1656 542 6 0.417 20.701400374821738 -22.808274768336872 -18.709797389799256 0 0 0
1657 542 6 0.417 19.564750915677944 -23.74675916669413 -18.360350163245133 0 0 0
1663 544 6 0.417 17.729238959484885 -22.79337827328043 -21.5893248464591 0 0 0
1664 545 16 -0.834 20.901398801802024 -20.273666600290355 -20.103819990141595 0 0 0
1665 545 6 0.417 21.24399156872559 -21.15319115831977 -19.84618096696355 0 0 0
1666 545 6 0.417 21.55107055598281 -19.731538857272376 -19.612786427811635 0 0 0
52 7 6 0.417 -21.944572771128925 -15.183015877292371 -17.679310956337567 0 0 0
98 23 16 -0.834 -22.12534580438445 -12.151656426895531 -20.517472547076938 0 0 0
99 23 6 0.417 -22.823273417903632 -11.643633357163752 -20.97833813362792 0 0 0
100 23 6 0.417 -21.800823992907105 -11.467136404895708 -19.891989220693176 0 0 0
134 35 16 -0.834 -17.85696771738853 -13.811525781922107 -18.674253250375 0 0 0
135 35 6 0.417 -17.976196968248182 -14.321144992569156 -19.50256088412439 0 0 0
136 35 6 0.417 -17.637860017194413 -14.524836087286262 -18.03610429582912 0 0 0
164 45 16 -0.834 -18.252074130508163 -15.10767122733909 -21.084708981684578 0 0 0
165 45 6 0.417 -19.121631620369165 -14.765568108720133 -21.387273549539998 0 0 0
166 45 6 0.417 -18.434531288020633 -16.056957990126755 -20.924865970041306 0 0 0
187 52 6 0.417 -20.51281312166075 -8.60093811515406 -18.1818247720135 0 0 0
317 96 16 -0.834 -16.90813136486067 -10.128230718890277 -17.944106659061735 0 0 0
318 96 6 0.417 -16.906069734278596 -9.208667529313423 -18.292685033845853 0 0 0
319 96 6 0.417 -17.852135317076872 -10.271380065327639 -17.805451135213538 0 0 0
320 97 16 -0.834 -22.027178531192664 -15.206063116270311 -23.70656401837174 0 0 0
321 97 6 0.417 -21.425016941843257 -14.763016920901283 -23.067828792933888 0 0 0
322 97 6 0.417 -22.120438007023264 -14.496130427546762 -24.376799248295896 0 0 0
325 98 6 0.417 -16.9499839772095 -12.55267285099114 -19.570147166093825 0 0 0
359 110 16 -0.834 -20.457877619059456 -13.731652650123063 -22.01740772327356 0 0 0
360 110 6 0.417 -21.003566070657165 -13.23333716633743 -21.36947795856846 0 0 0
361 110 6 0.417 -20.069451411913136 -12.984090838123668 -22.521981392901303 0 0 0
392 121 16 -0.834 -19.465522953758896 -11.57804319092093 -23.435105429879783 0 0 0
393 121 6 0.417 -18.73369863564568 -11.122484570392105 -22.95874223117151 0 0 0
394 121 6 0.417 -18.97134726164003 -11.874505037168253 -24.222519096429387 0 0 0
404 125 16 -0.834 -21.694451507208985 -9.757871856128746 -19.151045392929856 0 0 0
405 125 6 0.417 -22.41493073246731 -9.729632649340374 -18.478119388774633 0 0 0
406 125 6 0.417 -22.02693338953267 -9.064048249721935 -19.755343205005676 0 0 0
630 200 6 0.417 -21.768983338591 -23.952288818495994 -21.521452753641793 0 0 0
426 132 6 0.417 -17.220780965382104 -13.177361438593055 -24.46196439750691 0 0 0
440 137 16 -0.834 -16.641204254832502 -14.204462531997606 -23.140276080161783 0 0 0