6
# CELL(abcABC): 1000.00000  1000.00000  1000.00000    90.00000    90.00000    90.00000  Step:         401  Bead:       0 positions{angstrom}  cell{angstrom}
       C -8.07321e-01  3.00152e+00 -6.37084e-01
       H -1.41277e+00  3.37880e+00 -1.46190e+00
       H  1.02626e-01  3.58492e+00 -5.68901e-01
       H -5.32205e-01  2.01383e+00 -9.45298e-01
       O -1.44022e+00  2.94893e+00  5.77192e-01
       H -2.18673e+00  3.28751e+00  1.09198e+00
