4
# CELL(abcABC): 1000.00000  1000.00000  1000.00000    90.00000    90.00000    90.00000  Step:           0  Bead:       0 positions{angstrom}  cell{angstrom}
       O -3.15176e+00  1.06717e+00  3.44101e-01
       H -2.78773e+00  4.51838e-01 -2.26396e-01
       H -2.76707e+00  9.29024e-01  1.19003e+00
       H -3.80197e+00  1.74999e+00  2.59987e-01
4
# CELL(abcABC): 1000.00000  1000.00000  1000.00000    90.00000    90.00000    90.00000  Step:           1  Bead:       0 positions{angstrom}  cell{angstrom}
       O -3.15012e+00  1.06754e+00  3.43707e-01
       H -2.79653e+00  4.43044e-01 -2.24012e-01
       H -2.76653e+00  9.28140e-01  1.19108e+00
       H -3.81977e+00  1.75385e+00  2.62815e-01
4
# CELL(abcABC): 1000.00000  1000.00000  1000.00000    90.00000    90.00000    90.00000  Step:           2  Bead:       0 positions{angstrom}  cell{angstrom}
       O -3.14866e+00  1.06805e+00  3.43611e-01
       H -2.80373e+00  4.31270e-01 -2.24752e-01
       H -2.76364e+00  9.26857e-01  1.19178e+00
       H -3.83868e+00  1.75869e+00  2.64372e-01
4
# CELL(abcABC): 1000.00000  1000.00000  1000.00000    90.00000    90.00000    90.00000  Step:           3  Bead:       0 positions{angstrom}  cell{angstrom}
       O -3.14723e+00  1.06875e+00  3.43718e-01
       H -2.80902e+00  4.15755e-01 -2.26670e-01
       H -2.76034e+00  9.26407e-01  1.19263e+00
       H -3.85932e+00  1.76361e+00  2.63744e-01
4
# CELL(abcABC): 1000.00000  1000.00000  1000.00000    90.00000    90.00000    90.00000  Step:           4  Bead:       0 positions{angstrom}  cell{angstrom}
       O -3.14588e+00  1.06958e+00  3.44128e-01
       H -2.81374e+00  3.97576e-01 -2.31529e-01
       H -2.75579e+00  9.26508e-01  1.19243e+00
       H -3.88064e+00  1.76853e+00  2.62290e-01
4
# CELL(abcABC): 1000.00000  1000.00000  1000.00000    90.00000    90.00000    90.00000  Step:           5  Bead:       0 positions{angstrom}  cell{angstrom}
       O -3.14444e+00  1.07029e+00  3.44717e-01
       H -2.81919e+00  3.79450e-01 -2.37084e-01
       H -2.75128e+00  9.27790e-01  1.19263e+00
       H -3.90250e+00  1.77405e+00  2.58297e-01
4
# CELL(abcABC): 1000.00000  1000.00000  1000.00000    90.00000    90.00000    90.00000  Step:           6  Bead:       0 positions{angstrom}  cell{angstrom}
       O -3.14288e+00  1.07100e+00  3.45397e-01
       H -2.82511e+00  3.63039e-01 -2.42683e-01
       H -2.74680e+00  9.27557e-01  1.19123e+00
       H -3.92575e+00  1.77950e+00  2.54495e-01
4
# CELL(abcABC): 1000.00000  1000.00000  1000.00000    90.00000    90.00000    90.00000  Step:           7  Bead:       0 positions{angstrom}  cell{angstrom}
       O -3.14136e+00  1.07145e+00  3.45857e-01
       H -2.83054e+00  3.49316e-01 -2.44993e-01
       H -2.74180e+00  9.26988e-01  1.19017e+00
       H -3.94951e+00  1.78664e+00  2.50563e-01
4
# CELL(abcABC): 1000.00000  1000.00000  1000.00000    90.00000    90.00000    90.00000  Step:           8  Bead:       0 positions{angstrom}  cell{angstrom}
       O -3.13991e+00  1.07171e+00  3.46285e-01
       H -2.83611e+00  3.39109e-01 -2.45256e-01
       H -2.73504e+00  9.25449e-01  1.18810e+00
       H -3.97365e+00  1.79429e+00  2.46109e-01
4
# CELL(abcABC): 1000.00000  1000.00000  1000.00000    90.00000    90.00000    90.00000  Step:           9  Bead:       0 positions{angstrom}  cell{angstrom}
       O -3.13852e+00  1.07182e+00  3.46462e-01
       H -2.84273e+00  3.32036e-01 -2.41327e-01
       H -2.72641e+00  9.23927e-01  1.18630e+00
       H -3.99778e+00  1.80108e+00  2.41166e-01
4
# CELL(abcABC): 1000.00000  1000.00000  1000.00000    90.00000    90.00000    90.00000  Step:          10  Bead:       0 positions{angstrom}  cell{angstrom}
       O -3.13716e+00  1.07163e+00  3.46640e-01
       H -2.85011e+00  3.28966e-01 -2.35137e-01
       H -2.71682e+00  9.22950e-01  1.18335e+00
       H -4.02165e+00  1.80814e+00  2.35111e-01
4
# CELL(abcABC): 1000.00000  1000.00000  1000.00000    90.00000    90.00000    90.00000  Step:          11  Bead:       0 positions{angstrom}  cell{angstrom}
       O -3.13585e+00  1.07124e+00  3.46859e-01
       H -2.85776e+00  3.30338e-01 -2.27593e-01
       H -2.70771e+00  9.21558e-01  1.17950e+00
       H -4.04390e+00  1.81441e+00  2.27934e-01
4
# CELL(abcABC): 1000.00000  1000.00000  1000.00000    90.00000    90.00000    90.00000  Step:          12  Bead:       0 positions{angstrom}  cell{angstrom}
       O -3.13478e+00  1.07074e+00  3.47089e-01
       H -2.86416e+00  3.34605e-01 -2.18370e-01
       H -2.69791e+00  9.18812e-01  1.17422e+00
       H -4.06430e+00  1.82083e+00  2.20338e-01
4
# CELL(abcABC): 1000.00000  1000.00000  1000.00000    90.00000    90.00000    90.00000  Step:          13  Bead:       0 positions{angstrom}  cell{angstrom}
       O -3.13393e+00  1.07015e+00  3.47281e-01
       H -2.87007e+00  3.41576e-01 -2.07781e-01
       H -2.68602e+00  9.15820e-01  1.16866e+00
       H -4.08375e+00  1.82609e+00  2.12262e-01
4
# CELL(abcABC): 1000.00000  1000.00000  1000.00000    90.00000    90.00000    90.00000  Step:          14  Bead:       0 positions{angstrom}  cell{angstrom}
       O -3.13334e+00  1.06954e+00  3.47482e-01
       H -2.87366e+00  3.49067e-01 -1.96782e-01
       H -2.67289e+00  9.13433e-01  1.16283e+00
       H -4.10255e+00  1.83076e+00  2.03901e-01
4
# CELL(abcABC): 1000.00000  1000.00000  1000.00000    90.00000    90.00000    90.00000  Step:          15  Bead:       0 positions{angstrom}  cell{angstrom}
       O -3.13293e+00  1.06888e+00  3.47584e-01
       H -2.87779e+00  3.55395e-01 -1.84855e-01
       H -2.65978e+00  9.11747e-01  1.15696e+00
       H -4.11815e+00  1.83656e+00  1.96233e-01
4
# CELL(abcABC): 1000.00000  1000.00000  1000.00000    90.00000    90.00000    90.00000  Step:          16  Bead:       0 positions{angstrom}  cell{angstrom}
       O -3.13281e+00  1.06831e+00  3.47877e-01
       H -2.87902e+00  3.59095e-01 -1.75806e-01
       H -2.64644e+00  9.11531e-01  1.15091e+00
       H -4.13217e+00  1.84219e+00  1.88580e-01
4
# CELL(abcABC): 1000.00000  1000.00000  1000.00000    90.00000    90.00000    90.00000  Step:          17  Bead:       0 positions{angstrom}  cell{angstrom}
       O -3.13285e+00  1.06794e+00  3.48409e-01
       H -2.87742e+00  3.59872e-01 -1.70004e-01
       H -2.63392e+00  9.12593e-01  1.14366e+00
       H -4.14556e+00  1.84618e+00  1.81585e-01
4
# CELL(abcABC): 1000.00000  1000.00000  1000.00000    90.00000    90.00000    90.00000  Step:          18  Bead:       0 positions{angstrom}  cell{angstrom}
       O -3.13311e+00  1.06771e+00  3.49192e-01
       H -2.87468e+00  3.57646e-01 -1.67905e-01
       H -2.62019e+00  9.14409e-01  1.13625e+00
       H -4.15795e+00  1.85017e+00  1.74465e-01
4
# CELL(abcABC): 1000.00000  1000.00000  1000.00000    90.00000    90.00000    90.00000  Step:          19  Bead:       0 positions{angstrom}  cell{angstrom}
       O -3.13368e+00  1.06775e+00  3.50193e-01
       H -2.86955e+00  3.51712e-01 -1.69112e-01
       H -2.60720e+00  9.16500e-01  1.12820e+00
       H -4.16698e+00  1.85351e+00  1.67830e-01
4
# CELL(abcABC): 1000.00000  1000.00000  1000.00000    90.00000    90.00000    90.00000  Step:          20  Bead:       0 positions{angstrom}  cell{angstrom}
       O -3.13444e+00  1.06797e+00  3.51433e-01
       H -2.86281e+00  3.43663e-01 -1.74808e-01
       H -2.59518e+00  9.19602e-01  1.12058e+00
       H -4.17369e+00  1.85491e+00  1.61470e-01
4
# CELL(abcABC): 1000.00000  1000.00000  1000.00000    90.00000    90.00000    90.00000  Step:          21  Bead:       0 positions{angstrom}  cell{angstrom}
       O -3.13543e+00  1.06824e+00  3.52845e-01
       H -2.85564e+00  3.34117e-01 -1.83676e-01
       H -2.58155e+00  9.24202e-01  1.11429e+00
       H -4.17881e+00  1.85556e+00  1.54215e-01
4
# CELL(abcABC): 1000.00000  1000.00000  1000.00000    90.00000    90.00000    90.00000  Step:          22  Bead:       0 positions{angstrom}  cell{angstrom}
       O -3.13659e+00  1.06837e+00  3.54375e-01
       H -2.84948e+00  3.24480e-01 -1.92253e-01
       H -2.56583e+00  9.30037e-01  1.10669e+00
       H -4.18232e+00  1.85731e+00  1.46094e-01
4
# CELL(abcABC): 1000.00000  1000.00000  1000.00000    90.00000    90.00000    90.00000  Step:          23  Bead:       0 positions{angstrom}  cell{angstrom}
       O -3.13783e+00  1.06832e+00  3.56048e-01
       H -2.84376e+00  3.17712e-01 -2.00831e-01
       H -2.54933e+00  9.37382e-01  1.09966e+00
       H -4.18476e+00  1.85748e+00  1.35157e-01
4
# CELL(abcABC): 1000.00000  1000.00000  1000.00000    90.00000    90.00000    90.00000  Step:          24  Bead:       0 positions{angstrom}  cell{angstrom}
       O -3.13911e+00  1.06793e+00  3.57629e-01
       H -2.83861e+00  3.13467e-01 -2.07943e-01
       H -2.53276e+00  9.46836e-01  1.09284e+00
       H -4.18624e+00  1.85846e+00  1.23993e-01
4
# CELL(abcABC): 1000.00000  1000.00000  1000.00000    90.00000    90.00000    90.00000  Step:          25  Bead:       0 positions{angstrom}  cell{angstrom}
       O -3.14029e+00  1.06734e+00  3.58979e-01
       H -2.83506e+00  3.12528e-01 -2.11959e-01
       H -2.51713e+00  9.56658e-01  1.08593e+00
       H -4.18660e+00  1.85905e+00  1.13492e-01
4
# CELL(abcABC): 1000.00000  1000.00000  1000.00000    90.00000    90.00000    90.00000  Step:          26  Bead:       0 positions{angstrom}  cell{angstrom}
       O -3.14137e+00  1.06651e+00  3.60141e-01
       H -2.83331e+00  3.15536e-01 -2.13998e-01
       H -2.50212e+00  9.67155e-01  1.07833e+00
       H -4.18625e+00  1.85858e+00  1.04685e-01
4
# CELL(abcABC): 1000.00000  1000.00000  1000.00000    90.00000    90.00000    90.00000  Step:          27  Bead:       0 positions{angstrom}  cell{angstrom}
       O -3.14242e+00  1.06538e+00  3.61162e-01
       H -2.83359e+00  3.23987e-01 -2.13950e-01
       H -2.48833e+00  9.77691e-01  1.06975e+00
       H -4.18304e+00  1.85753e+00  9.70145e-02
4
# CELL(abcABC): 1000.00000  1000.00000  1000.00000    90.00000    90.00000    90.00000  Step:          28  Bead:       0 positions{angstrom}  cell{angstrom}
       O -3.14329e+00  1.06401e+00  3.61970e-01
       H -2.83665e+00  3.34777e-01 -2.11637e-01
       H -2.47542e+00  9.89140e-01  1.06071e+00
       H -4.17915e+00  1.85707e+00  9.09054e-02
4
# CELL(abcABC): 1000.00000  1000.00000  1000.00000    90.00000    90.00000    90.00000  Step:          29  Bead:       0 positions{angstrom}  cell{angstrom}
       O -3.14406e+00  1.06242e+00  3.62681e-01
       H -2.84043e+00  3.48727e-01 -2.08992e-01
       H -2.46514e+00  1.00123e+00  1.05092e+00
       H -4.17348e+00  1.85623e+00  8.67626e-02
4
# CELL(abcABC): 1000.00000  1000.00000  1000.00000    90.00000    90.00000    90.00000  Step:          30  Bead:       0 positions{angstrom}  cell{angstrom}
       O -3.14473e+00  1.06064e+00  3.63288e-01
       H -2.84475e+00  3.65154e-01 -2.04782e-01
       H -2.45686e+00  1.01386e+00  1.04094e+00
       H -4.16679e+00  1.85546e+00  8.28960e-02
4
# CELL(abcABC): 1000.00000  1000.00000  1000.00000    90.00000    90.00000    90.00000  Step:          31  Bead:       0 positions{angstrom}  cell{angstrom}
       O -3.14548e+00  1.05878e+00  3.63953e-01
       H -2.84777e+00  3.81426e-01 -2.00888e-01
       H -2.44969e+00  1.02807e+00  1.02992e+00
       H -4.15898e+00  1.85460e+00  7.94727e-02
4
# CELL(abcABC): 1000.00000  1000.00000  1000.00000    90.00000    90.00000    90.00000  Step:          32  Bead:       0 positions{angstrom}  cell{angstrom}
       O -3.14621e+00  1.05716e+00  3.64503e-01
       H -2.85127e+00  3.93616e-01 -1.98303e-01
       H -2.44356e+00  1.04391e+00  1.02004e+00
       H -4.15001e+00  1.85219e+00  7.80434e-02
4
# CELL(abcABC): 1000.00000  1000.00000  1000.00000    90.00000    90.00000    90.00000  Step:          33  Bead:       0 positions{angstrom}  cell{angstrom}
       O -3.14697e+00  1.05596e+00  3.65066e-01
       H -2.85429e+00  4.01291e-01 -1.97578e-01
       H -2.43849e+00  1.05899e+00  1.01080e+00
       H -4.13995e+00  1.84856e+00  7.76078e-02
4
# CELL(abcABC): 1000.00000  1000.00000  1000.00000    90.00000    90.00000    90.00000  Step:          34  Bead:       0 positions{angstrom}  cell{angstrom}
       O -3.14768e+00  1.05515e+00  3.65882e-01
       H -2.85550e+00  4.03907e-01 -2.00844e-01
       H -2.43654e+00  1.07367e+00  1.00229e+00
       H -4.12956e+00  1.84402e+00  7.64290e-02
4
# CELL(abcABC): 1000.00000  1000.00000  1000.00000    90.00000    90.00000    90.00000  Step:          35  Bead:       0 positions{angstrom}  cell{angstrom}
       O -3.14850e+00  1.05470e+00  3.66832e-01
       H -2.85363e+00  4.01477e-01 -2.08624e-01
       H -2.43676e+00  1.08927e+00  9.95199e-01
       H -4.11811e+00  1.83803e+00  7.62222e-02
4
# CELL(abcABC): 1000.00000  1000.00000  1000.00000    90.00000    90.00000    90.00000  Step:          36  Bead:       0 positions{angstrom}  cell{angstrom}
       O -3.14944e+00  1.05450e+00  3.67852e-01
       H -2.85053e+00  3.95046e-01 -2.19741e-01
       H -2.43740e+00  1.10603e+00  9.88359e-01
       H -4.10560e+00  1.83091e+00  7.80010e-02
4
# CELL(abcABC): 1000.00000  1000.00000  1000.00000    90.00000    90.00000    90.00000  Step:          37  Bead:       0 positions{angstrom}  cell{angstrom}
       O -3.15052e+00  1.05459e+00  3.68690e-01
       H -2.84644e+00  3.86988e-01 -2.30381e-01
       H -2.43762e+00  1.12197e+00  9.82419e-01
       H -4.09239e+00  1.82151e+00  8.12674e-02
4
# CELL(abcABC): 1000.00000  1000.00000  1000.00000    90.00000    90.00000    90.00000  Step:          38  Bead:       0 positions{angstrom}  cell{angstrom}
       O -3.15149e+00  1.05484e+00  3.69510e-01
       H -2.84363e+00  3.77850e-01 -2.41947e-01
       H -2.43749e+00  1.13649e+00  9.77762e-01
       H -4.07995e+00  1.81231e+00  8.44865e-02
4
# CELL(abcABC): 1000.00000  1000.00000  1000.00000    90.00000    90.00000    90.00000  Step:          39  Bead:       0 positions{angstrom}  cell{angstrom}
       O -3.15265e+00  1.05525e+00  3.69937e-01
       H -2.84097e+00  3.68785e-01 -2.51233e-01
       H -2.43636e+00  1.14939e+00  9.75638e-01
       H -4.06535e+00  1.80181e+00  8.91194e-02
4
# CELL(abcABC): 1000.00000  1000.00000  1000.00000    90.00000    90.00000    90.00000  Step:          40  Bead:       0 positions{angstrom}  cell{angstrom}
       O -3.15383e+00  1.05561e+00  3.69819e-01
       H -2.83964e+00  3.61775e-01 -2.56567e-01
       H -2.43445e+00  1.16186e+00  9.76607e-01
       H -4.04979e+00  1.79071e+00  9.53523e-02
4
# CELL(abcABC): 1000.00000  1000.00000  1000.00000    90.00000    90.00000    90.00000  Step:          41  Bead:       0 positions{angstrom}  cell{angstrom}
       O -3.15494e+00  1.05587e+00  3.69266e-01
       H -2.84025e+00  3.58189e-01 -2.58588e-01
       H -2.43183e+00  1.17395e+00  9.78905e-01
       H -4.03418e+00  1.77802e+00  1.03851e-01
4
# CELL(abcABC): 1000.00000  1000.00000  1000.00000    90.00000    90.00000    90.00000  Step:          42  Bead:       0 positions{angstrom}  cell{angstrom}
       O -3.15604e+00  1.05619e+00  3.68404e-01
       H -2.84114e+00  3.55759e-01 -2.56911e-01
       H -2.42948e+00  1.18516e+00  9.81972e-01
       H -4.01826e+00  1.76419e+00  1.12784e-01
4
# CELL(abcABC): 1000.00000  1000.00000  1000.00000    90.00000    90.00000    90.00000  Step:          43  Bead:       0 positions{angstrom}  cell{angstrom}
       O -3.15694e+00  1.05638e+00  3.67243e-01
       H -2.84398e+00  3.57204e-01 -2.51568e-01
       H -2.42819e+00  1.19658e+00  9.85042e-01
       H -4.00237e+00  1.74839e+00  1.22803e-01
4
# CELL(abcABC): 1000.00000  1000.00000  1000.00000    90.00000    90.00000    90.00000  Step:          44  Bead:       0 positions{angstrom}  cell{angstrom}
       O -3.15760e+00  1.05656e+00  3.65844e-01
       H -2.84807e+00  3.60624e-01 -2.43265e-01
       H -2.42862e+00  1.20631e+00  9.86821e-01
       H -3.98735e+00  1.73232e+00  1.34935e-01
4
# CELL(abcABC): 1000.00000  1000.00000  1000.00000    90.00000    90.00000    90.00000  Step:          45  Bead:       0 positions{angstrom}  cell{angstrom}
       O -3.15794e+00  1.05678e+00  3.64351e-01
       H -2.85378e+00  3.66084e-01 -2.32808e-01
       H -2.43050e+00  1.21400e+00  9.86564e-01
       H -3.97440e+00  1.71564e+00  1.48434e-01
4
# CELL(abcABC): 1000.00000  1000.00000  1000.00000    90.00000    90.00000    90.00000  Step:          46  Bead:       0 positions{angstrom}  cell{angstrom}
       O -3.15810e+00  1.05711e+00  3.62829e-01
       H -2.86011e+00  3.72970e-01 -2.21056e-01
       H -2.43476e+00  1.21938e+00  9.84412e-01
       H -3.96121e+00  1.69824e+00  1.62991e-01
4
# CELL(abcABC): 1000.00000  1000.00000  1000.00000    90.00000    90.00000    90.00000  Step:          47  Bead:       0 positions{angstrom}  cell{angstrom}
       O -3.15807e+00  1.05747e+00  3.61461e-01
       H -2.86627e+00  3.78990e-01 -2.08679e-01
       H -2.44092e+00  1.22355e+00  9.80044e-01
       H -3.94944e+00  1.68227e+00  1.76701e-01
4
# CELL(abcABC): 1000.00000  1000.00000  1000.00000    90.00000    90.00000    90.00000  Step:          48  Bead:       0 positions{angstrom}  cell{angstrom}
       O -3.15791e+00  1.05814e+00  3.60187e-01
       H -2.87111e+00  3.81832e-01 -1.97053e-01
       H -2.44861e+00  1.22705e+00  9.73943e-01
       H -3.93951e+00  1.66524e+00  1.91392e-01
4
# CELL(abcABC): 1000.00000  1000.00000  1000.00000    90.00000    90.00000    90.00000  Step:          49  Bead:       0 positions{angstrom}  cell{angstrom}
       O -3.15774e+00  1.05909e+00  3.58945e-01
       H -2.87451e+00  3.80764e-01 -1.87058e-01
       H -2.45583e+00  1.22926e+00  9.67587e-01
       H -3.93147e+00  1.64910e+00  2.07474e-01
4
# CELL(abcABC): 1000.00000  1000.00000  1000.00000    90.00000    90.00000    90.00000  Step:          50  Bead:       0 positions{angstrom}  cell{angstrom}
       O -3.15742e+00  1.06039e+00  3.57953e-01
       H -2.87661e+00  3.75587e-01 -1.80281e-01
       H -2.46467e+00  1.23004e+00  9.61635e-01
       H -3.92563e+00  1.63289e+00  2.22387e-01
4
# CELL(abcABC): 1000.00000  1000.00000  1000.00000    90.00000    90.00000    90.00000  Step:          51  Bead:       0 positions{angstrom}  cell{angstrom}
       O -3.15717e+00  1.06192e+00  3.57080e-01
       H -2.87753e+00  3.65765e-01 -1.76946e-01
       H -2.47268e+00  1.23082e+00  9.56755e-01
       H -3.92070e+00  1.61756e+00  2.37784e-01
4
# CELL(abcABC): 1000.00000  1000.00000  1000.00000    90.00000    90.00000    90.00000  Step:          52  Bead:       0 positions{angstrom}  cell{angstrom}
       O -3.15698e+00  1.06371e+00  3.56340e-01
       H -2.87771e+00  3.52332e-01 -1.76017e-01
       H -2.47883e+00  1.23110e+00  9.52788e-01
       H -3.91739e+00  1.60234e+00  2.52580e-01
4
# CELL(abcABC): 1000.00000  1000.00000  1000.00000    90.00000    90.00000    90.00000  Step:          53  Bead:       0 positions{angstrom}  cell{angstrom}
       O -3.15689e+00  1.06550e+00  3.55483e-01
       H -2.87679e+00  3.37467e-01 -1.77397e-01
       H -2.48234e+00  1.23321e+00  9.52208e-01
       H -3.91621e+00  1.58661e+00  2.68141e-01
4
# CELL(abcABC): 1000.00000  1000.00000  1000.00000    90.00000    90.00000    90.00000  Step:          54  Bead:       0 positions{angstrom}  cell{angstrom}
       O -3.15683e+00  1.06729e+00  3.54191e-01
       H -2.87603e+00  3.21460e-01 -1.77893e-01
       H -2.48303e+00  1.23664e+00  9.55383e-01
       H -3.91725e+00  1.57080e+00  2.85963e-01
4
# CELL(abcABC): 1000.00000  1000.00000  1000.00000    90.00000    90.00000    90.00000  Step:          55  Bead:       0 positions{angstrom}  cell{angstrom}
       O -3.15680e+00  1.06890e+00  3.52646e-01
       H -2.87648e+00  3.06943e-01 -1.76720e-01
       H -2.48073e+00  1.24076e+00  9.61844e-01
       H -3.91963e+00  1.55568e+00  3.02860e-01
4
# CELL(abcABC): 1000.00000  1000.00000  1000.00000    90.00000    90.00000    90.00000  Step:          56  Bead:       0 positions{angstrom}  cell{angstrom}
       O -3.15673e+00  1.07020e+00  3.50889e-01
       H -2.87570e+00  2.95267e-01 -1.73278e-01
       H -2.47663e+00  1.24502e+00  9.68919e-01
       H -3.92552e+00  1.54244e+00  3.20225e-01
4
# CELL(abcABC): 1000.00000  1000.00000  1000.00000    90.00000    90.00000    90.00000  Step:          57  Bead:       0 positions{angstrom}  cell{angstrom}
       O -3.15648e+00  1.07115e+00  3.48919e-01
       H -2.87443e+00  2.87580e-01 -1.67209e-01
       H -2.47268e+00  1.24895e+00  9.77627e-01
       H -3.93470e+00  1.53116e+00  3.36722e-01
4
# CELL(abcABC): 1000.00000  1000.00000  1000.00000    90.00000    90.00000    90.00000  Step:          58  Bead:       0 positions{angstrom}  cell{angstrom}
       O -3.15607e+00  1.07182e+00  3.46862e-01
       H -2.87312e+00  2.82891e-01 -1.59114e-01
       H -2.46850e+00  1.25272e+00  9.86531e-01
       H -3.94672e+00  1.52139e+00  3.52383e-01
4
# CELL(abcABC): 1000.00000  1000.00000  1000.00000    90.00000    90.00000    90.00000  Step:          59  Bead:       0 positions{angstrom}  cell{angstrom}
       O -3.15544e+00  1.07216e+00  3.44689e-01
       H -2.87179e+00  2.82036e-01 -1.48913e-01
       H -2.46510e+00  1.25655e+00  9.95563e-01
       H -3.96146e+00  1.51312e+00  3.67631e-01
4
# CELL(abcABC): 1000.00000  1000.00000  1000.00000    90.00000    90.00000    90.00000  Step:          60  Bead:       0 positions{angstrom}  cell{angstrom}
       O -3.15456e+00  1.07230e+00  3.42668e-01
       H -2.87212e+00  2.84062e-01 -1.37084e-01
       H -2.46278e+00  1.25908e+00  1.00062e+00
       H -3.97737e+00  1.50628e+00  3.82843e-01
4
# CELL(abcABC): 1000.00000  1000.00000  1000.00000    90.00000    90.00000    90.00000  Step:          61  Bead:       0 positions{angstrom}  cell{angstrom}
       O -3.15352e+00  1.07232e+00  3.40871e-01
       H -2.87182e+00  2.87933e-01 -1.24677e-01
       H -2.46150e+00  1.26051e+00  1.00138e+00
       H -3.99555e+00  1.50058e+00  3.98185e-01
4
# CELL(abcABC): 1000.00000  1000.00000  1000.00000    90.00000    90.00000    90.00000  Step:          62  Bead:       0 positions{angstrom}  cell{angstrom}
       O -3.15218e+00  1.07236e+00  3.39483e-01
       H -2.87214e+00  2.92228e-01 -1.12735e-01
       H -2.46378e+00  1.26052e+00  9.98379e-01
       H -4.01419e+00  1.49567e+00  4.11286e-01
4
# CELL(abcABC): 1000.00000  1000.00000  1000.00000    90.00000    90.00000    90.00000  Step:          63  Bead:       0 positions{angstrom}  cell{angstrom}
       O -3.15063e+00  1.07230e+00  3.38261e-01
       H -2.87156e+00  2.97560e-01 -1.01200e-01
       H -2.46845e+00  1.25892e+00  9.92197e-01
       H -4.03464e+00  1.49288e+00  4.25328e-01
4
# CELL(abcABC): 1000.00000  1000.00000  1000.00000    90.00000    90.00000    90.00000  Step:          64  Bead:       0 positions{angstrom}  cell{angstrom}
       O -3.14907e+00  1.07232e+00  3.37340e-01
       H -2.86871e+00  3.01949e-01 -9.04811e-02
       H -2.47411e+00  1.25647e+00  9.83693e-01
       H -4.05669e+00  1.49065e+00  4.37735e-01
4
# CELL(abcABC): 1000.00000  1000.00000  1000.00000    90.00000    90.00000    90.00000  Step:          65  Bead:       0 positions{angstrom}  cell{angstrom}
       O -3.14756e+00  1.07241e+00  3.36773e-01
       H -2.86526e+00  3.04643e-01 -8.34531e-02
       H -2.47942e+00  1.25506e+00  9.73674e-01
       H -4.07880e+00  1.48791e+00  4.49717e-01
4
# CELL(abcABC): 1000.00000  1000.00000  1000.00000    90.00000    90.00000    90.00000  Step:          66  Bead:       0 positions{angstrom}  cell{angstrom}
       O -3.14623e+00  1.07255e+00  3.36407e-01
       H -2.86035e+00  3.07005e-01 -7.88548e-02
       H -2.48367e+00  1.25244e+00  9.63772e-01
       H -4.10060e+00  1.48596e+00  4.60833e-01
4
# CELL(abcABC): 1000.00000  1000.00000  1000.00000    90.00000    90.00000    90.00000  Step:          67  Bead:       0 positions{angstrom}  cell{angstrom}
       O -3.14508e+00  1.07291e+00  3.36276e-01
       H -2.85355e+00  3.05329e-01 -7.85369e-02
       H -2.48522e+00  1.25070e+00  9.55399e-01
       H -4.12395e+00  1.48370e+00  4.70968e-01
4
# CELL(abcABC): 1000.00000  1000.00000  1000.00000    90.00000    90.00000    90.00000  Step:          68  Bead:       0 positions{angstrom}  cell{angstrom}
       O -3.14429e+00  1.07331e+00  3.36462e-01
       H -2.84475e+00  3.00738e-01 -8.18240e-02
       H -2.48327e+00  1.25028e+00  9.47364e-01
       H -4.14734e+00  1.48239e+00  4.79338e-01
4
# CELL(abcABC): 1000.00000  1000.00000  1000.00000    90.00000    90.00000    90.00000  Step:          69  Bead:       0 positions{angstrom}  cell{angstrom}
       O -3.14376e+00  1.07382e+00  3.36569e-01
       H -2.83539e+00  2.93086e-01 -8.62330e-02
       H -2.47818e+00  1.25154e+00  9.42731e-01
       H -4.17012e+00  1.48072e+00  4.86689e-01
4
# CELL(abcABC): 1000.00000  1000.00000  1000.00000    90.00000    90.00000    90.00000  Step:          70  Bead:       0 positions{angstrom}  cell{angstrom}
       O -3.14370e+00  1.07408e+00  3.36732e-01
       H -2.82534e+00  2.85910e-01 -9.35244e-02
       H -2.46905e+00  1.25529e+00  9.40276e-01
       H -4.19034e+00  1.47990e+00  4.93843e-01
4
# CELL(abcABC): 1000.00000  1000.00000  1000.00000    90.00000    90.00000    90.00000  Step:          71  Bead:       0 positions{angstrom}  cell{angstrom}
       O -3.14382e+00  1.07423e+00  3.37004e-01
       H -2.81628e+00  2.78935e-01 -1.03329e-01
       H -2.45717e+00  1.26019e+00  9.39187e-01
       H -4.20938e+00  1.47959e+00  5.00413e-01
4
# CELL(abcABC): 1000.00000  1000.00000  1000.00000    90.00000    90.00000    90.00000  Step:          72  Bead:       0 positions{angstrom}  cell{angstrom}
       O -3.14412e+00  1.07402e+00  3.37274e-01
       H -2.80774e+00  2.74863e-01 -1.13128e-01
       H -2.44294e+00  1.26667e+00  9.39697e-01
       H -4.22741e+00  1.48065e+00  5.05422e-01
4
# CELL(abcABC): 1000.00000  1000.00000  1000.00000    90.00000    90.00000    90.00000  Step:          73  Bead:       0 positions{angstrom}  cell{angstrom}
       O -3.14441e+00  1.07352e+00  3.37693e-01
       H -2.80064e+00  2.74200e-01 -1.22684e-01
       H -2.42796e+00  1.27456e+00  9.39897e-01
       H -4.24490e+00  1.48122e+00  5.08133e-01
4
# CELL(abcABC): 1000.00000  1000.00000  1000.00000    90.00000    90.00000    90.00000  Step:          74  Bead:       0 positions{angstrom}  cell{angstrom}
       O -3.14466e+00  1.07266e+00  3.38390e-01
       H -2.79478e+00  2.77706e-01 -1.32670e-01
       H -2.41361e+00  1.28309e+00  9.37475e-01
       H -4.26108e+00  1.48287e+00  5.09470e-01
4
# CELL(abcABC): 1000.00000  1000.00000  1000.00000    90.00000    90.00000    90.00000  Step:          75  Bead:       0 positions{angstrom}  cell{angstrom}
       O -3.14461e+00  1.07154e+00  3.39241e-01
       H -2.79111e+00  2.84465e-01 -1.42031e-01
       H -2.40161e+00  1.29123e+00  9.33529e-01
       H -4.27755e+00  1.48574e+00  5.09264e-01
4
# CELL(abcABC): 1000.00000  1000.00000  1000.00000    90.00000    90.00000    90.00000  Step:          76  Bead:       0 positions{angstrom}  cell{angstrom}
       O -3.14445e+00  1.07004e+00  3.40143e-01
       H -2.78824e+00  2.95533e-01 -1.48990e-01
       H -2.39231e+00  1.29930e+00  9.26879e-01
       H -4.29227e+00  1.49048e+00  5.08565e-01
4
# CELL(abcABC): 1000.00000  1000.00000  1000.00000    90.00000    90.00000    90.00000  Step:          77  Bead:       0 positions{angstrom}  cell{angstrom}
       O -3.14400e+00  1.06831e+00  3.41197e-01
       H -2.78689e+00  3.10953e-01 -1.54755e-01
       H -2.38648e+00  1.30726e+00  9.17848e-01
       H -4.30662e+00  1.49461e+00  5.06626e-01
4
# CELL(abcABC): 1000.00000  1000.00000  1000.00000    90.00000    90.00000    90.00000  Step:          78  Bead:       0 positions{angstrom}  cell{angstrom}
       O -3.14330e+00  1.06647e+00  3.42621e-01
       H -2.78774e+00  3.28102e-01 -1.60709e-01
       H -2.38288e+00  1.31528e+00  9.05674e-01
       H -4.32038e+00  1.49856e+00  5.02143e-01
4
# CELL(abcABC): 1000.00000  1000.00000  1000.00000    90.00000    90.00000    90.00000  Step:          79  Bead:       0 positions{angstrom}  cell{angstrom}
       O -3.14254e+00  1.06472e+00  3.44231e-01
       H -2.78976e+00  3.46936e-01 -1.65254e-01
       H -2.38066e+00  1.32178e+00  8.90761e-01
       H -4.33266e+00  1.50104e+00  4.96053e-01
4
# CELL(abcABC): 1000.00000  1000.00000  1000.00000    90.00000    90.00000    90.00000  Step:          80  Bead:       0 positions{angstrom}  cell{angstrom}
       O -3.14183e+00  1.06307e+00  3.45961e-01
       H -2.79127e+00  3.65716e-01 -1.70517e-01
       H -2.38003e+00  1.32740e+00  8.74947e-01
       H -4.34306e+00  1.50275e+00  4.89660e-01
4
# CELL(abcABC): 1000.00000  1000.00000  1000.00000    90.00000    90.00000    90.00000  Step:          81  Bead:       0 positions{angstrom}  cell{angstrom}
       O -3.14124e+00  1.06147e+00  3.47987e-01
       H -2.78991e+00  3.83596e-01 -1.78050e-01
       H -2.38112e+00  1.33445e+00  8.58111e-01
       H -4.35273e+00  1.50327e+00  4.81879e-01
4
# CELL(abcABC): 1000.00000  1000.00000  1000.00000    90.00000    90.00000    90.00000  Step:          82  Bead:       0 positions{angstrom}  cell{angstrom}
       O -3.14079e+00  1.06024e+00  3.50131e-01
       H -2.78659e+00  3.98073e-01 -1.87185e-01
       H -2.38205e+00  1.34019e+00  8.40847e-01
       H -4.36221e+00  1.50265e+00  4.74237e-01
4
# CELL(abcABC): 1000.00000  1000.00000  1000.00000    90.00000    90.00000    90.00000  Step:          83  Bead:       0 positions{angstrom}  cell{angstrom}
       O -3.14061e+00  1.05918e+00  3.52445e-01
       H -2.78179e+00  4.09682e-01 -1.98573e-01
       H -2.38216e+00  1.34661e+00  8.24113e-01
       H -4.36988e+00  1.50142e+00  4.65637e-01
4
# CELL(abcABC): 1000.00000  1000.00000  1000.00000    90.00000    90.00000    90.00000  Step:          84  Bead:       0 positions{angstrom}  cell{angstrom}
       O -3.14067e+00  1.05833e+00  3.54891e-01
       H -2.77458e+00  4.17360e-01 -2.13523e-01
       H -2.38157e+00  1.35391e+00  8.08546e-01
       H -4.37668e+00  1.49983e+00  4.57331e-01
4
# CELL(abcABC): 1000.00000  1000.00000  1000.00000    90.00000    90.00000    90.00000  Step:          85  Bead:       0 positions{angstrom}  cell{angstrom}