4
# CELL(abcABC): 1000.00000  1000.00000  1000.00000    90.00000    90.00000    90.00000  Step:         615  Bead:       0 positions{angstrom}  cell{angstrom}
       O -3.15743e+00  1.07473e+00  3.65031e-01
       H -3.91485e+00  5.11363e-01  3.30921e-01
       H -2.44477e+00  6.79714e-01  9.00040e-01
       H -2.90722e+00  1.82006e+00 -3.39571e-01
