4
# CELL(abcABC): 1000.00000  1000.00000  1000.00000    90.00000    90.00000    90.00000  Step:           0  Bead:       0 positions{angstrom}  cell{angstrom}
       O -3.14389e+00  1.06699e+00  3.99160e-01
       H -4.07620e+00  1.20062e+00  2.96983e-01
       H -2.84586e+00  2.09643e-01  3.12151e-02
       H -2.55983e+00  1.72387e+00  2.14685e-02
4
# CELL(abcABC): 1000.00000  1000.00000  1000.00000    90.00000    90.00000    90.00000  Step:           1  Bead:       0 positions{angstrom}  cell{angstrom}
       O -3.14210e+00  1.06713e+00  3.98605e-01
       H -4.08699e+00  1.19398e+00  3.00865e-01
       H -2.84638e+00  2.09528e-01  3.28863e-02
       H -2.57701e+00  1.72835e+00  2.47223e-02
4
# CELL(abcABC): 1000.00000  1000.00000  1000.00000    90.00000    90.00000    90.00000  Step:           2  Bead:       0 positions{angstrom}  cell{angstrom}
       O -3.14031e+00  1.06694e+00  3.98052e-01
       H -4.09871e+00  1.18845e+00  3.04777e-01
       H -2.84646e+00  2.10494e-01  3.55051e-02
       H -2.59348e+00  1.73602e+00  2.69683e-02
4
# CELL(abcABC): 1000.00000  1000.00000  1000.00000    90.00000    90.00000    90.00000  Step:           3  Bead:       0 positions{angstrom}  cell{angstrom}
       O -3.13856e+00  1.06646e+00  3.97459e-01
       H -4.10917e+00  1.18236e+00  3.10242e-01
       H -2.84778e+00  2.13556e-01  3.95733e-02
       H -2.60954e+00  1.74662e+00  2.68529e-02
4
# CELL(abcABC): 1000.00000  1000.00000  1000.00000    90.00000    90.00000    90.00000  Step:           4  Bead:       0 positions{angstrom}  cell{angstrom}
       O -3.13701e+00  1.06576e+00  3.97008e-01
       H -4.11792e+00  1.17544e+00  3.14594e-01
       H -2.84910e+00  2.17886e-01  4.37454e-02
       H -2.62414e+00  1.76028e+00  2.54899e-02
4
# CELL(abcABC): 1000.00000  1000.00000  1000.00000    90.00000    90.00000    90.00000  Step:           5  Bead:       0 positions{angstrom}  cell{angstrom}
       O -3.13561e+00  1.06477e+00  3.96677e-01
       H -4.12460e+00  1.16867e+00  3.18800e-01
       H -2.85132e+00  2.23421e-01  4.91376e-02
       H -2.63745e+00  1.77735e+00  2.11492e-02
4
# CELL(abcABC): 1000.00000  1000.00000  1000.00000    90.00000    90.00000    90.00000  Step:           6  Bead:       0 positions{angstrom}  cell{angstrom}
       O -3.13439e+00  1.06379e+00  3.96468e-01
       H -4.12771e+00  1.16210e+00  3.22295e-01
       H -2.85397e+00  2.26535e-01  5.32855e-02
       H -2.65100e+00  1.79633e+00  1.68185e-02
4
# CELL(abcABC): 1000.00000  1000.00000  1000.00000    90.00000    90.00000    90.00000  Step:           7  Bead:       0 positions{angstrom}  cell{angstrom}
       O -3.13353e+00  1.06277e+00  3.96146e-01
       H -4.12557e+00  1.15536e+00  3.27397e-01
       H -2.85617e+00  2.27764e-01  5.76047e-02
       H -2.66461e+00  1.81793e+00  1.25011e-02
4
# CELL(abcABC): 1000.00000  1000.00000  1000.00000    90.00000    90.00000    90.00000  Step:           8  Bead:       0 positions{angstrom}  cell{angstrom}
       O -3.13304e+00  1.06195e+00  3.95937e-01
       H -4.11885e+00  1.14837e+00  3.32216e-01
       H -2.85639e+00  2.26005e-01  6.03678e-02
       H -2.67894e+00  1.83973e+00  8.23901e-03
4
# CELL(abcABC): 1000.00000  1000.00000  1000.00000    90.00000    90.00000    90.00000  Step:           9  Bead:       0 positions{angstrom}  cell{angstrom}
       O -3.13281e+00  1.06148e+00  3.95627e-01
       H -4.10920e+00  1.14027e+00  3.38555e-01
       H -2.85439e+00  2.22269e-01  6.27262e-02
       H -2.69424e+00  1.85914e+00  4.47278e-03
4
# CELL(abcABC): 1000.00000  1000.00000  1000.00000    90.00000    90.00000    90.00000  Step:          10  Bead:       0 positions{angstrom}  cell{angstrom}
       O -3.13272e+00  1.06123e+00  3.95435e-01
       H -4.09757e+00  1.13186e+00  3.44504e-01
       H -2.85098e+00  2.17415e-01  6.34202e-02
       H -2.71069e+00  1.87636e+00  8.74743e-04
4
# CELL(abcABC): 1000.00000  1000.00000  1000.00000    90.00000    90.00000    90.00000  Step:          11  Bead:       0 positions{angstrom}  cell{angstrom}
       O -3.13266e+00  1.06128e+00  3.95356e-01
       H -4.08521e+00  1.12397e+00  3.49484e-01
       H -2.84769e+00  2.11094e-01  6.29324e-02
       H -2.72725e+00  1.88964e+00 -2.36283e-03
4
# CELL(abcABC): 1000.00000  1000.00000  1000.00000    90.00000    90.00000    90.00000  Step:          12  Bead:       0 positions{angstrom}  cell{angstrom}
       O -3.13267e+00  1.06168e+00  3.95302e-01
       H -4.07268e+00  1.11579e+00  3.54443e-01
       H -2.84352e+00  2.03208e-01  6.09222e-02
       H -2.74382e+00  1.89949e+00 -4.45525e-03
4
# CELL(abcABC): 1000.00000  1000.00000  1000.00000    90.00000    90.00000    90.00000  Step:          13  Bead:       0 positions{angstrom}  cell{angstrom}
       O -3.13256e+00  1.06230e+00  3.95157e-01
       H -4.06301e+00  1.10823e+00  3.59962e-01
       H -2.83740e+00  1.95910e-01  5.87482e-02
       H -2.76128e+00  1.90449e+00 -5.49922e-03
4
# CELL(abcABC): 1000.00000  1000.00000  1000.00000    90.00000    90.00000    90.00000  Step:          14  Bead:       0 positions{angstrom}  cell{angstrom}
       O -3.13225e+00  1.06303e+00  3.94884e-01
       H -4.05645e+00  1.10048e+00  3.66295e-01
       H -2.83043e+00  1.91000e-01  5.67316e-02
       H -2.77975e+00  1.90543e+00 -5.48653e-03
4
# CELL(abcABC): 1000.00000  1000.00000  1000.00000    90.00000    90.00000    90.00000  Step:          15  Bead:       0 positions{angstrom}  cell{angstrom}
       O -3.13155e+00  1.06371e+00  3.94295e-01
       H -4.05744e+00  1.09230e+00  3.75305e-01
       H -2.82401e+00  1.89223e-01  5.53636e-02
       H -2.79635e+00  1.90462e+00 -3.78418e-03
4
# CELL(abcABC): 1000.00000  1000.00000  1000.00000    90.00000    90.00000    90.00000  Step:          16  Bead:       0 positions{angstrom}  cell{angstrom}
       O -3.13059e+00  1.06429e+00  3.93607e-01
       H -4.06283e+00  1.08381e+00  3.84646e-01
       H -2.81789e+00  1.91628e-01  5.46462e-02
       H -2.81234e+00  1.90149e+00 -1.47979e-03
4
# CELL(abcABC): 1000.00000  1000.00000  1000.00000    90.00000    90.00000    90.00000  Step:          17  Bead:       0 positions{angstrom}  cell{angstrom}
       O -3.12931e+00  1.06478e+00  3.92836e-01
       H -4.07201e+00  1.07577e+00  3.94985e-01
       H -2.81300e+00  1.97900e-01  5.35186e-02
       H -2.82829e+00  1.89552e+00  1.55356e-03
4
# CELL(abcABC): 1000.00000  1000.00000  1000.00000    90.00000    90.00000    90.00000  Step:          18  Bead:       0 positions{angstrom}  cell{angstrom}
       O -3.12790e+00  1.06503e+00  3.92029e-01
       H -4.08515e+00  1.06849e+00  4.06338e-01
       H -2.80715e+00  2.07054e-01  5.26644e-02
       H -2.84333e+00  1.88962e+00  3.85397e-03
4
# CELL(abcABC): 1000.00000  1000.00000  1000.00000    90.00000    90.00000    90.00000  Step:          19  Bead:       0 positions{angstrom}  cell{angstrom}
       O -3.12666e+00  1.06515e+00  3.91233e-01
       H -4.09874e+00  1.06097e+00  4.18953e-01
       H -2.80207e+00  2.17884e-01  5.11956e-02
       H -2.85463e+00  1.88441e+00  5.34979e-03
4
# CELL(abcABC): 1000.00000  1000.00000  1000.00000    90.00000    90.00000    90.00000  Step:          20  Bead:       0 positions{angstrom}  cell{angstrom}
       O -3.12563e+00  1.06513e+00  3.90588e-01
       H -4.11118e+00  1.05377e+00  4.30842e-01
       H -2.79769e+00  2.30212e-01  4.96592e-02
       H -2.86289e+00  1.87968e+00  5.23906e-03
4
# CELL(abcABC): 1000.00000  1000.00000  1000.00000    90.00000    90.00000    90.00000  Step:          21  Bead:       0 positions{angstrom}  cell{angstrom}
       O -3.12504e+00  1.06493e+00  3.90179e-01
       H -4.12135e+00  1.04597e+00  4.42015e-01
       H -2.79112e+00  2.43431e-01  4.83411e-02
       H -2.86865e+00  1.87746e+00  1.87351e-03
4
# CELL(abcABC): 1000.00000  1000.00000  1000.00000    90.00000    90.00000    90.00000  Step:          22  Bead:       0 positions{angstrom}  cell{angstrom}
       O -3.12498e+00  1.06453e+00  3.90086e-01
       H -4.12875e+00  1.03722e+00  4.54371e-01
       H -2.78138e+00  2.56110e-01  4.42537e-02
       H -2.87185e+00  1.87989e+00 -4.91777e-03
4
# CELL(abcABC): 1000.00000  1000.00000  1000.00000    90.00000    90.00000    90.00000  Step:          23  Bead:       0 positions{angstrom}  cell{angstrom}
       O -3.12548e+00  1.06407e+00  3.90419e-01
       H -4.13132e+00  1.02899e+00  4.66182e-01
       H -2.76942e+00  2.67637e-01  3.90881e-02
       H -2.87334e+00  1.88381e+00 -1.68541e-02
4
# CELL(abcABC): 1000.00000  1000.00000  1000.00000    90.00000    90.00000    90.00000  Step:          24  Bead:       0 positions{angstrom}  cell{angstrom}
       O -3.12652e+00  1.06357e+00  3.90983e-01
       H -4.12834e+00  1.01979e+00  4.77732e-01
       H -2.75562e+00  2.78029e-01  3.25778e-02
       H -2.87373e+00  1.89061e+00 -3.08520e-02
4
# CELL(abcABC): 1000.00000  1000.00000  1000.00000    90.00000    90.00000    90.00000  Step:          25  Bead:       0 positions{angstrom}  cell{angstrom}
       O -3.12795e+00  1.06329e+00  3.91631e-01
       H -4.12071e+00  1.00966e+00  4.89759e-01
       H -2.74081e+00  2.85332e-01  2.47158e-02
       H -2.87344e+00  1.89781e+00 -4.52962e-02
4
# CELL(abcABC): 1000.00000  1000.00000  1000.00000    90.00000    90.00000    90.00000  Step:          26  Bead:       0 positions{angstrom}  cell{angstrom}
       O -3.12969e+00  1.06330e+00  3.92354e-01
       H -4.10913e+00  9.98955e-01  5.00671e-01
       H -2.72473e+00  2.90167e-01  1.54432e-02
       H -2.87350e+00  1.90356e+00 -5.84094e-02
4
# CELL(abcABC): 1000.00000  1000.00000  1000.00000    90.00000    90.00000    90.00000  Step:          27  Bead:       0 positions{angstrom}  cell{angstrom}
       O -3.13169e+00  1.06351e+00  3.93121e-01
       H -4.09495e+00  9.89277e-01  5.10484e-01
       H -2.70827e+00  2.92673e-01  5.16994e-03
       H -2.87226e+00  1.90743e+00 -7.01302e-02
4
# CELL(abcABC): 1000.00000  1000.00000  1000.00000    90.00000    90.00000    90.00000  Step:          28  Bead:       0 positions{angstrom}  cell{angstrom}
       O -3.13363e+00  1.06392e+00  3.93757e-01
       H -4.08068e+00  9.78089e-01  5.19756e-01
       H -2.69165e+00  2.94778e-01 -4.81028e-03
       H -2.87234e+00  1.91001e+00 -7.95160e-02
4
# CELL(abcABC): 1000.00000  1000.00000  1000.00000    90.00000    90.00000    90.00000  Step:          29  Bead:       0 positions{angstrom}  cell{angstrom}
       O -3.13541e+00  1.06445e+00  3.94258e-01
       H -4.06630e+00  9.67145e-01  5.27308e-01
       H -2.67723e+00  2.97273e-01 -1.40524e-02
       H -2.87300e+00  1.91002e+00 -8.57841e-02
4
# CELL(abcABC): 1000.00000  1000.00000  1000.00000    90.00000    90.00000    90.00000  Step:          30  Bead:       0 positions{angstrom}  cell{angstrom}
       O -3.13681e+00  1.06499e+00  3.94509e-01
       H -4.05400e+00  9.56995e-01  5.35477e-01
       H -2.66502e+00  3.00933e-01 -2.15466e-02
       H -2.87523e+00  1.90793e+00 -9.04325e-02
4
# CELL(abcABC): 1000.00000  1000.00000  1000.00000    90.00000    90.00000    90.00000  Step:          31  Bead:       0 positions{angstrom}  cell{angstrom}
       O -3.13784e+00  1.06549e+00  3.94557e-01
       H -4.04421e+00  9.46647e-01  5.43887e-01
       H -2.65468e+00  3.07426e-01 -2.79126e-02
       H -2.87909e+00  1.90382e+00 -9.32452e-02
4
# CELL(abcABC): 1000.00000  1000.00000  1000.00000    90.00000    90.00000    90.00000  Step:          32  Bead:       0 positions{angstrom}  cell{angstrom}
       O -3.13822e+00  1.06614e+00  3.94142e-01
       H -4.04065e+00  9.33893e-01  5.53138e-01
       H -2.64662e+00  3.17075e-01 -3.10558e-02
       H -2.88458e+00  1.89672e+00 -9.27699e-02
4
# CELL(abcABC): 1000.00000  1000.00000  1000.00000    90.00000    90.00000    90.00000  Step:          33  Bead:       0 positions{angstrom}  cell{angstrom}
       O -3.13798e+00  1.06693e+00  3.93354e-01
       H -4.04302e+00  9.19843e-01  5.63850e-01
       H -2.64103e+00  3.27400e-01 -3.16716e-02
       H -2.89168e+00  1.88784e+00 -9.03540e-02
4
# CELL(abcABC): 1000.00000  1000.00000  1000.00000    90.00000    90.00000    90.00000  Step:          34  Bead:       0 positions{angstrom}  cell{angstrom}
       O -3.13708e+00  1.06774e+00  3.92457e-01
       H -4.04924e+00  9.05113e-01  5.74415e-01
       H -2.63990e+00  3.38420e-01 -3.00590e-02
       H -2.90093e+00  1.87864e+00 -8.82965e-02
4
# CELL(abcABC): 1000.00000  1000.00000  1000.00000    90.00000    90.00000    90.00000  Step:          35  Bead:       0 positions{angstrom}  cell{angstrom}
       O -3.13583e+00  1.06847e+00  3.91451e-01
       H -4.05633e+00  8.90086e-01  5.83873e-01
       H -2.64214e+00  3.50788e-01 -2.62581e-02
       H -2.91131e+00  1.86981e+00 -8.55807e-02
4
# CELL(abcABC): 1000.00000  1000.00000  1000.00000    90.00000    90.00000    90.00000  Step:          36  Bead:       0 positions{angstrom}  cell{angstrom}
       O -3.13443e+00  1.06902e+00  3.90469e-01
       H -4.06400e+00  8.75219e-01  5.92040e-01
       H -2.64560e+00  3.63750e-01 -2.24227e-02
       H -2.92244e+00  1.86302e+00 -8.19928e-02
4
# CELL(abcABC): 1000.00000  1000.00000  1000.00000    90.00000    90.00000    90.00000  Step:          37  Bead:       0 positions{angstrom}  cell{angstrom}
       O -3.13308e+00  1.06951e+00  3.89502e-01
       H -4.07020e+00  8.61714e-01  6.00804e-01
       H -2.64888e+00  3.74085e-01 -1.90135e-02
       H -2.93433e+00  1.85836e+00 -7.88199e-02
4
# CELL(abcABC): 1000.00000  1000.00000  1000.00000    90.00000    90.00000    90.00000  Step:          38  Bead:       0 positions{angstrom}  cell{angstrom}
       O -3.13174e+00  1.06987e+00  3.88931e-01
       H -4.07522e+00  8.48902e-01  6.06915e-01
       H -2.65139e+00  3.80084e-01 -1.65812e-02
       H -2.94808e+00  1.85937e+00 -7.82913e-02
4
# CELL(abcABC): 1000.00000  1000.00000  1000.00000    90.00000    90.00000    90.00000  Step:          39  Bead:       0 positions{angstrom}  cell{angstrom}
       O -3.13085e+00  1.07025e+00  3.88548e-01
       H -4.07627e+00  8.36715e-01  6.11851e-01
       H -2.65199e+00  3.80912e-01 -1.44971e-02
       H -2.96059e+00  1.86479e+00 -7.92465e-02
4
# CELL(abcABC): 1000.00000  1000.00000  1000.00000    90.00000    90.00000    90.00000  Step:          40  Bead:       0 positions{angstrom}  cell{angstrom}
       O -3.13034e+00  1.07048e+00  3.88282e-01
       H -4.07353e+00  8.26117e-01  6.15973e-01
       H -2.65045e+00  3.77745e-01 -1.22164e-02
       H -2.97294e+00  1.87489e+00 -8.14135e-02
4
# CELL(abcABC): 1000.00000  1000.00000  1000.00000    90.00000    90.00000    90.00000  Step:          41  Bead:       0 positions{angstrom}  cell{angstrom}
       O -3.13018e+00  1.07061e+00  3.88221e-01
       H -4.06723e+00  8.17824e-01  6.17914e-01
       H -2.64638e+00  3.71227e-01 -1.09489e-02
       H -2.98597e+00  1.88759e+00 -8.36635e-02
4
# CELL(abcABC): 1000.00000  1000.00000  1000.00000    90.00000    90.00000    90.00000  Step:          42  Bead:       0 positions{angstrom}  cell{angstrom}
       O -3.13041e+00  1.07083e+00  3.88402e-01
       H -4.05593e+00  8.09226e-01  6.17899e-01
       H -2.64049e+00  3.61950e-01 -1.02733e-02
       H -2.99938e+00  1.90199e+00 -8.71977e-02
4
# CELL(abcABC): 1000.00000  1000.00000  1000.00000    90.00000    90.00000    90.00000  Step:          43  Bead:       0 positions{angstrom}  cell{angstrom}
       O -3.13083e+00  1.07097e+00  3.88696e-01
       H -4.04220e+00  8.02831e-01  6.16157e-01
       H -2.63349e+00  3.52492e-01 -9.77513e-03
       H -3.01343e+00  1.91570e+00 -9.06202e-02
4
# CELL(abcABC): 1000.00000  1000.00000  1000.00000    90.00000    90.00000    90.00000  Step:          44  Bead:       0 positions{angstrom}  cell{angstrom}
       O -3.13130e+00  1.07114e+00  3.88999e-01
       H -4.02683e+00  7.96831e-01  6.12786e-01
       H -2.62608e+00  3.42398e-01 -9.62453e-03
       H -3.02876e+00  1.92903e+00 -9.22095e-02
4
# CELL(abcABC): 1000.00000  1000.00000  1000.00000    90.00000    90.00000    90.00000  Step:          45  Bead:       0 positions{angstrom}  cell{angstrom}
       O -3.13161e+00  1.07136e+00  3.89285e-01
       H -4.01215e+00  7.91593e-01  6.08203e-01
       H -2.61830e+00  3.32719e-01 -9.66399e-03
       H -3.04637e+00  1.94041e+00 -9.21262e-02
4
# CELL(abcABC): 1000.00000  1000.00000  1000.00000    90.00000    90.00000    90.00000  Step:          46  Bead:       0 positions{angstrom}  cell{angstrom}
       O -3.13176e+00  1.07164e+00  3.89455e-01
       H -3.99934e+00  7.87084e-01  6.03127e-01
       H -2.61154e+00  3.24384e-01 -9.15691e-03
       H -3.06362e+00  1.94880e+00 -9.02514e-02
4
# CELL(abcABC): 1000.00000  1000.00000  1000.00000    90.00000    90.00000    90.00000  Step:          47  Bead:       0 positions{angstrom}  cell{angstrom}
       O -3.13156e+00  1.07185e+00  3.89548e-01
       H -3.98982e+00  7.81892e-01  5.98707e-01
       H -2.60599e+00  3.19372e-01 -8.23867e-03
       H -3.08178e+00  1.95571e+00 -8.82328e-02
4
# CELL(abcABC): 1000.00000  1000.00000  1000.00000    90.00000    90.00000    90.00000  Step:          48  Bead:       0 positions{angstrom}  cell{angstrom}
       O -3.13096e+00  1.07219e+00  3.89400e-01
       H -3.98420e+00  7.74809e-01  5.95340e-01
       H -2.60207e+00  3.18637e-01 -6.70204e-03
       H -3.10087e+00  1.95812e+00 -8.40483e-02
4
# CELL(abcABC): 1000.00000  1000.00000  1000.00000    90.00000    90.00000    90.00000  Step:          49  Bead:       0 positions{angstrom}  cell{angstrom}
       O -3.13000e+00  1.07257e+00  3.88910e-01
       H -3.98329e+00  7.66143e-01  5.93485e-01
       H -2.59859e+00  3.21528e-01 -3.78826e-03
       H -3.12048e+00  1.95783e+00 -7.73205e-02
4
# CELL(abcABC): 1000.00000  1000.00000  1000.00000    90.00000    90.00000    90.00000  Step:          50  Bead:       0 positions{angstrom}  cell{angstrom}
       O -3.12852e+00  1.07304e+00  3.88324e-01
       H -3.98703e+00  7.56511e-01  5.92249e-01
       H -2.59834e+00  3.27541e-01  2.26974e-04
       H -3.14044e+00  1.95400e+00 -7.08039e-02
4
# CELL(abcABC): 1000.00000  1000.00000  1000.00000    90.00000    90.00000    90.00000  Step:          51  Bead:       0 positions{angstrom}  cell{angstrom}
       O -3.12682e+00  1.07349e+00  3.87625e-01
       H -3.99430e+00  7.45695e-01  5.91284e-01
       H -2.59953e+00  3.37307e-01  4.67897e-03
       H -3.15899e+00  1.94796e+00 -6.31937e-02
4
# CELL(abcABC): 1000.00000  1000.00000  1000.00000    90.00000    90.00000    90.00000  Step:          52  Bead:       0 positions{angstrom}  cell{angstrom}
       O -3.12502e+00  1.07398e+00  3.87001e-01
       H -4.00356e+00  7.34396e-01  5.90737e-01
       H -2.60151e+00  3.49213e-01  7.97781e-03
       H -3.17640e+00  1.93953e+00 -5.60393e-02
4
# CELL(abcABC): 1000.00000  1000.00000  1000.00000    90.00000    90.00000    90.00000  Step:          53  Bead:       0 positions{angstrom}  cell{angstrom}
       O -3.12331e+00  1.07436e+00  3.86409e-01
       H -4.01211e+00  7.23936e-01  5.89371e-01
       H -2.60359e+00  3.64300e-01  1.12323e-02
       H -3.19280e+00  1.92890e+00 -4.85383e-02
4
# CELL(abcABC): 1000.00000  1000.00000  1000.00000    90.00000    90.00000    90.00000  Step:          54  Bead:       0 positions{angstrom}  cell{angstrom}
       O -3.12183e+00  1.07471e+00  3.85725e-01
       H -4.01917e+00  7.13381e-01  5.88972e-01
       H -2.60487e+00  3.80598e-01  1.38211e-02
       H -3.20797e+00  1.91759e+00 -3.98709e-02
4
# CELL(abcABC): 1000.00000  1000.00000  1000.00000    90.00000    90.00000    90.00000  Step:          55  Bead:       0 positions{angstrom}  cell{angstrom}
       O -3.12079e+00  1.07494e+00  3.85282e-01
       H -4.02407e+00  7.04156e-01  5.89100e-01
       H -2.60372e+00  3.96081e-01  1.48317e-02
       H -3.22082e+00  1.90771e+00 -3.39784e-02
4
# CELL(abcABC): 1000.00000  1000.00000  1000.00000    90.00000    90.00000    90.00000  Step:          56  Bead:       0 positions{angstrom}  cell{angstrom}
       O -3.12032e+00  1.07498e+00  3.85201e-01
       H -4.02317e+00  6.96644e-01  5.89499e-01
       H -2.59947e+00  4.09118e-01  1.18089e-02
       H -3.23342e+00  1.90161e+00 -3.00641e-02
4
# CELL(abcABC): 1000.00000  1000.00000  1000.00000    90.00000    90.00000    90.00000  Step:          57  Bead:       0 positions{angstrom}  cell{angstrom}
       O -3.12040e+00  1.07481e+00  3.85478e-01
       H -4.01674e+00  6.91183e-01  5.90124e-01
       H -2.59248e+00  4.18806e-01  6.47501e-03
       H -3.24555e+00  1.90009e+00 -2.97564e-02
4
# CELL(abcABC): 1000.00000  1000.00000  1000.00000    90.00000    90.00000    90.00000  Step:          58  Bead:       0 positions{angstrom}  cell{angstrom}
       O -3.12110e+00  1.07454e+00  3.86158e-01
       H -4.00553e+00  6.86230e-01  5.90438e-01
       H -2.58125e+00  4.25488e-01 -1.49126e-03
       H -3.25682e+00  1.90265e+00 -3.28869e-02
4
# CELL(abcABC): 1000.00000  1000.00000  1000.00000    90.00000    90.00000    90.00000  Step:          59  Bead:       0 positions{angstrom}  cell{angstrom}
       O -3.12234e+00  1.07411e+00  3.87057e-01
       H -3.99042e+00  6.82233e-01  5.90918e-01
       H -2.56636e+00  4.30274e-01 -1.06237e-02
       H -3.26719e+00  1.90863e+00 -3.85095e-02
4
# CELL(abcABC): 1000.00000  1000.00000  1000.00000    90.00000    90.00000    90.00000  Step:          60  Bead:       0 positions{angstrom}  cell{angstrom}
       O -3.12397e+00  1.07367e+00  3.88231e-01
       H -3.97467e+00  6.78081e-01  5.91859e-01
       H -2.54823e+00  4.33056e-01 -2.32784e-02
       H -3.27527e+00  1.91688e+00 -4.54372e-02
4
# CELL(abcABC): 1000.00000  1000.00000  1000.00000    90.00000    90.00000    90.00000  Step:          61  Bead:       0 positions{angstrom}  cell{angstrom}
       O -3.12587e+00  1.07328e+00  3.89526e-01
       H -3.95785e+00  6.72892e-01  5.93239e-01
       H -2.52777e+00  4.35549e-01 -3.80847e-02
       H -3.28233e+00  1.92586e+00 -5.25676e-02
4
# CELL(abcABC): 1000.00000  1000.00000  1000.00000    90.00000    90.00000    90.00000  Step:          62  Bead:       0 positions{angstrom}  cell{angstrom}
       O -3.12768e+00  1.07302e+00  3.90900e-01
       H -3.94336e+00  6.65527e-01  5.95216e-01
       H -2.50897e+00  4.38828e-01 -5.30945e-02
       H -3.28689e+00  1.93405e+00 -6.13468e-02
4
# CELL(abcABC): 1000.00000  1000.00000  1000.00000    90.00000    90.00000    90.00000  Step:          63  Bead:       0 positions{angstrom}  cell{angstrom}
       O -3.12923e+00  1.07276e+00  3.91938e-01
       H -3.93157e+00  6.57131e-01  5.98978e-01
       H -2.49239e+00  4.43630e-01 -6.69530e-02
       H -3.29067e+00  1.94174e+00 -6.77268e-02
4
# CELL(abcABC): 1000.00000  1000.00000  1000.00000    90.00000    90.00000    90.00000  Step:          64  Bead:       0 positions{angstrom}  cell{angstrom}
       O -3.13046e+00  1.07265e+00  3.92650e-01
       H -3.92262e+00  6.46596e-01  6.05219e-01
       H -2.47849e+00  4.51143e-01 -7.86485e-02
       H -3.29394e+00  1.94660e+00 -7.35662e-02
4
# CELL(abcABC): 1000.00000  1000.00000  1000.00000    90.00000    90.00000    90.00000  Step:          65  Bead:       0 positions{angstrom}  cell{angstrom}
       O -3.13127e+00  1.07264e+00  3.93029e-01
       H -3.91894e+00  6.34171e-01  6.11890e-01
       H -2.46769e+00  4.63194e-01 -8.77828e-02
       H -3.29564e+00  1.94705e+00 -7.71143e-02
4
# CELL(abcABC): 1000.00000  1000.00000  1000.00000    90.00000    90.00000    90.00000  Step:          66  Bead:       0 positions{angstrom}  cell{angstrom}
       O -3.13165e+00  1.07269e+00  3.92936e-01
       H -3.91940e+00  6.22218e-01  6.20540e-01
       H -2.46088e+00  4.77093e-01 -9.35500e-02
       H -3.29594e+00  1.94435e+00 -7.85332e-02
4
# CELL(abcABC): 1000.00000  1000.00000  1000.00000    90.00000    90.00000    90.00000  Step:          67  Bead:       0 positions{angstrom}  cell{angstrom}
       O -3.13156e+00  1.07293e+00  3.92475e-01
       H -3.92265e+00  6.08080e-01  6.29292e-01
       H -2.45772e+00  4.94170e-01 -9.56448e-02
       H -3.29724e+00  1.93764e+00 -7.78699e-02
4
# CELL(abcABC): 1000.00000  1000.00000  1000.00000    90.00000    90.00000    90.00000  Step:          68  Bead:       0 positions{angstrom}  cell{angstrom}
       O -3.13119e+00  1.07317e+00  3.91851e-01
       H -3.92684e+00  5.93267e-01  6.38134e-01
       H -2.45805e+00  5.13906e-01 -9.63680e-02
       H -3.29854e+00  1.92879e+00 -7.60781e-02
4
# CELL(abcABC): 1000.00000  1000.00000  1000.00000    90.00000    90.00000    90.00000  Step:          69  Bead:       0 positions{angstrom}  cell{angstrom}
       O -3.13057e+00  1.07353e+00  3.90821e-01
       H -3.93146e+00  5.77393e-01  6.48436e-01
       H -2.46221e+00  5.35562e-01 -9.36667e-02
       H -3.29973e+00  1.91732e+00 -7.27339e-02
4
# CELL(abcABC): 1000.00000  1000.00000  1000.00000    90.00000    90.00000    90.00000  Step:          70  Bead:       0 positions{angstrom}  cell{angstrom}
       O -3.13004e+00  1.07369e+00  3.89686e-01
       H -3.93424e+00  5.63453e-01  6.57081e-01
       H -2.46815e+00  5.58742e-01 -8.95046e-02
       H -3.29940e+00  1.90560e+00 -6.75330e-02
4
# CELL(abcABC): 1000.00000  1000.00000  1000.00000    90.00000    90.00000    90.00000  Step:          71  Bead:       0 positions{angstrom}  cell{angstrom}
       O -3.12955e+00  1.07381e+00  3.88646e-01
       H -3.93514e+00  5.50385e-01  6.63156e-01
       H -2.47495e+00  5.80811e-01 -8.50917e-02
       H -3.29949e+00  1.89470e+00 -6.15018e-02
4
# CELL(abcABC): 1000.00000  1000.00000  1000.00000    90.00000    90.00000    90.00000  Step:          72  Bead:       0 positions{angstrom}  cell{angstrom}
       O -3.12931e+00  1.07368e+00  3.87720e-01
       H -3.93236e+00  5.40012e-01  6.67999e-01
       H -2.48020e+00  6.00994e-01 -8.04457e-02
       H -3.30071e+00  1.88693e+00 -5.63006e-02
4
# CELL(abcABC): 1000.00000  1000.00000  1000.00000    90.00000    90.00000    90.00000  Step:          73  Bead:       0 positions{angstrom}  cell{angstrom}
       O -3.12937e+00  1.07344e+00  3.87149e-01
       H -3.92605e+00  5.32109e-01  6.71009e-01
       H -2.48232e+00  6.18100e-01 -7.74954e-02
       H -3.30397e+00  1.88161e+00 -5.31847e-02
4
# CELL(abcABC): 1000.00000  1000.00000  1000.00000    90.00000    90.00000    90.00000  Step:          74  Bead:       0 positions{angstrom}  cell{angstrom}
       O -3.12986e+00  1.07300e+00  3.87100e-01
       H -3.91581e+00  5.26854e-01  6.71004e-01
       H -2.47991e+00  6.30750e-01 -7.83597e-02
       H -3.30882e+00  1.88106e+00 -5.15451e-02
4
# CELL(abcABC): 1000.00000  1000.00000  1000.00000    90.00000    90.00000    90.00000  Step:          75  Bead:       0 positions{angstrom}  cell{angstrom}
       O -3.13059e+00  1.07252e+00  3.87426e-01
       H -3.90293e+00  5.22830e-01  6.68880e-01
       H -2.47313e+00  6.37982e-01 -8.14170e-02
       H -3.31703e+00  1.88548e+00 -5.15335e-02
4
# CELL(abcABC): 1000.00000  1000.00000  1000.00000    90.00000    90.00000    90.00000  Step:          76  Bead:       0 positions{angstrom}  cell{angstrom}
       O -3.13170e+00  1.07189e+00  3.87936e-01
       H -3.88691e+00  5.20711e-01  6.66568e-01
       H -2.46199e+00  6.40810e-01 -8.70012e-02
       H -3.32648e+00  1.89486e+00 -5.17363e-02
4
# CELL(abcABC): 1000.00000  1000.00000  1000.00000    90.00000    90.00000    90.00000  Step:          77  Bead:       0 positions{angstrom}  cell{angstrom}
       O -3.13290e+00  1.07127e+00  3.88589e-01
       H -3.86988e+00  5.20334e-01  6.63449e-01
       H -2.44814e+00  6.40403e-01 -9.36956e-02
       H -3.33834e+00  1.90549e+00 -5.22928e-02
4
# CELL(abcABC): 1000.00000  1000.00000  1000.00000    90.00000    90.00000    90.00000  Step:          78  Bead:       0 positions{angstrom}  cell{angstrom}
       O -3.13403e+00  1.07079e+00  3.89436e-01
       H -3.85443e+00  5.19045e-01  6.59142e-01
       H -2.43194e+00  6.38261e-01 -1.01226e-01
       H -3.35206e+00  1.91652e+00 -5.38908e-02
4
# CELL(abcABC): 1000.00000  1000.00000  1000.00000    90.00000    90.00000    90.00000  Step:          79  Bead:       0 positions{angstrom}  cell{angstrom}
       O -3.13503e+00  1.07063e+00  3.90128e-01
       H -3.84153e+00  5.16956e-01  6.56397e-01
       H -2.41465e+00  6.34115e-01 -1.08336e-01
       H -3.36640e+00  1.92531e+00 -5.50339e-02
4
# CELL(abcABC): 1000.00000  1000.00000  1000.00000    90.00000    90.00000    90.00000  Step:          80  Bead:       0 positions{angstrom}  cell{angstrom}
       O -3.13577e+00  1.07076e+00  3.90464e-01
       H -3.83134e+00  5.12926e-01  6.54413e-01
       H -2.39878e+00  6.29699e-01 -1.12645e-01
       H -3.38067e+00  1.93160e+00 -5.40595e-02
4
# CELL(abcABC): 1000.00000  1000.00000  1000.00000    90.00000    90.00000    90.00000  Step:          81  Bead:       0 positions{angstrom}  cell{angstrom}
       O -3.13612e+00  1.07107e+00  3.90523e-01
       H -3.82289e+00  5.06974e-01  6.52870e-01
       H -2.38659e+00  6.28087e-01 -1.14188e-01
       H -3.39573e+00  1.93431e+00 -5.19173e-02
4
# CELL(abcABC): 1000.00000  1000.00000  1000.00000    90.00000    90.00000    90.00000  Step:          82  Bead:       0 positions{angstrom}  cell{angstrom}
       O -3.13596e+00  1.07182e+00  3.90104e-01
       H -3.81795e+00  4.97365e-01  6.53324e-01
       H -2.37788e+00  6.26847e-01 -1.12782e-01
       H -3.41190e+00  1.93319e+00 -4.71324e-02
4
# CELL(abcABC): 1000.00000  1000.00000  1000.00000    90.00000    90.00000    90.00000  Step:          83  Bead:       0 positions{angstrom}  cell{angstrom}
       O -3.13534e+00  1.07278e+00  3.89308e-01
       H -3.81673e+00  4.85437e-01  6.55343e-01
       H -2.37344e+00  6.28020e-01 -1.08221e-01
       H -3.42741e+00  1.92880e+00 -4.10743e-02
4
# CELL(abcABC): 1000.00000  1000.00000  1000.00000    90.00000    90.00000    90.00000  Step:          84  Bead:       0 positions{angstrom}  cell{angstrom}
       O -3.13428e+00  1.07392e+00  3.88213e-01
       H -3.81721e+00  4.70875e-01  6.57151e-01
       H -2.37426e+00  6.31615e-01 -1.00800e-01
       H -3.44304e+00  1.92170e+00 -3.29230e-02
4
# CELL(abcABC): 1000.00000  1000.00000  1000.00000    90.00000    90.00000    90.00000  Step:          85  Bead:       0 positions{angstrom}  cell{angstrom}