4
# CELL(abcABC): 1000.00000  1000.00000  1000.00000    90.00000    90.00000    90.00000  Step:           0  Bead:       0 positions{angstrom}  cell{angstrom}
       O -3.15373e+00  1.07067e+00  3.50350e-01
       H -2.86575e+00  2.56366e-01  7.46569e-01
       H -2.86340e+00  1.68195e+00  1.00081e+00
       H -3.59638e+00  1.13699e+00 -6.22970e-01
4
# CELL(abcABC): 1000.00000  1000.00000  1000.00000    90.00000    90.00000    90.00000  Step:           1  Bead:       0 positions{angstrom}  cell{angstrom}
       O -3.15204e+00  1.07086e+00  3.49758e-01
       H -2.87588e+00  2.48993e-01  7.50284e-01
       H -2.86323e+00  1.68280e+00  1.00208e+00
       H -3.61316e+00  1.14046e+00 -6.18565e-01
4
# CELL(abcABC): 1000.00000  1000.00000  1000.00000    90.00000    90.00000    90.00000  Step:           2  Bead:       0 positions{angstrom}  cell{angstrom}
       O -3.15044e+00  1.07082e+00  3.49089e-01
       H -2.88719e+00  2.42115e-01  7.53228e-01
       H -2.86144e+00  1.68648e+00  1.00351e+00
       H -3.62917e+00  1.14435e+00 -6.12314e-01
4
# CELL(abcABC): 1000.00000  1000.00000  1000.00000    90.00000    90.00000    90.00000  Step:           3  Bead:       0 positions{angstrom}  cell{angstrom}
       O -3.14877e+00  1.07060e+00  3.48313e-01
       H -2.89902e+00  2.34849e-01  7.56552e-01
       H -2.86001e+00  1.69365e+00  1.00540e+00
       H -3.64518e+00  1.14789e+00 -6.05213e-01
4
# CELL(abcABC): 1000.00000  1000.00000  1000.00000    90.00000    90.00000    90.00000  Step:           4  Bead:       0 positions{angstrom}  cell{angstrom}
       O -3.14710e+00  1.07025e+00  3.47642e-01
       H -2.91216e+00  2.27699e-01  7.57266e-01
       H -2.85826e+00  1.70315e+00  1.00613e+00
       H -3.66028e+00  1.15112e+00 -5.96006e-01
4
# CELL(abcABC): 1000.00000  1000.00000  1000.00000    90.00000    90.00000    90.00000  Step:           5  Bead:       0 positions{angstrom}  cell{angstrom}
       O -3.14531e+00  1.06964e+00  3.47085e-01
       H -2.92709e+00  2.22255e-01  7.56181e-01
       H -2.85768e+00  1.71467e+00  1.00659e+00
       H -3.67448e+00  1.15474e+00 -5.86543e-01
4
# CELL(abcABC): 1000.00000  1000.00000  1000.00000    90.00000    90.00000    90.00000  Step:           6  Bead:       0 positions{angstrom}  cell{angstrom}
       O -3.14337e+00  1.06902e+00  3.46676e-01
       H -2.94280e+00  2.18856e-01  7.52770e-01
       H -2.85848e+00  1.72447e+00  1.00420e+00
       H -3.68878e+00  1.15814e+00 -5.74233e-01
4
# CELL(abcABC): 1000.00000  1000.00000  1000.00000    90.00000    90.00000    90.00000  Step:           7  Bead:       0 positions{angstrom}  cell{angstrom}
       O -3.14146e+00  1.06828e+00  3.46186e-01
       H -2.95762e+00  2.17059e-01  7.49569e-01
       H -2.86026e+00  1.73305e+00  1.00049e+00
       H -3.70241e+00  1.16313e+00 -5.59561e-01
4
# CELL(abcABC): 1000.00000  1000.00000  1000.00000    90.00000    90.00000    90.00000  Step:           8  Bead:       0 positions{angstrom}  cell{angstrom}
       O -3.13966e+00  1.06758e+00  3.45850e-01
       H -2.97168e+00  2.16553e-01  7.44980e-01
       H -2.86183e+00  1.73922e+00  9.93953e-01
       H -3.71541e+00  1.16856e+00 -5.43087e-01
4
# CELL(abcABC): 1000.00000  1000.00000  1000.00000    90.00000    90.00000    90.00000  Step:           9  Bead:       0 positions{angstrom}  cell{angstrom}
       O -3.13795e+00  1.06705e+00  3.45447e-01
       H -2.98557e+00  2.15991e-01  7.41197e-01
       H -2.86298e+00  1.74371e+00  9.85996e-01
       H -3.72751e+00  1.17311e+00 -5.24954e-01
4
# CELL(abcABC): 1000.00000  1000.00000  1000.00000    90.00000    90.00000    90.00000  Step:          10  Bead:       0 positions{angstrom}  cell{angstrom}
       O -3.13633e+00  1.06655e+00  3.45190e-01
       H -2.99882e+00  2.15784e-01  7.36675e-01
       H -2.86434e+00  1.74692e+00  9.75609e-01
       H -3.73861e+00  1.17797e+00 -5.05964e-01
4
# CELL(abcABC): 1000.00000  1000.00000  1000.00000    90.00000    90.00000    90.00000  Step:          11  Bead:       0 positions{angstrom}  cell{angstrom}
       O -3.13483e+00  1.06619e+00  3.45050e-01
       H -3.01098e+00  2.16255e-01  7.31227e-01
       H -2.86709e+00  1.74800e+00  9.63617e-01
       H -3.74747e+00  1.18211e+00 -4.86312e-01
4
# CELL(abcABC): 1000.00000  1000.00000  1000.00000    90.00000    90.00000    90.00000  Step:          12  Bead:       0 positions{angstrom}  cell{angstrom}
       O -3.13365e+00  1.06602e+00  3.44901e-01
       H -3.02065e+00  2.16054e-01  7.26219e-01
       H -2.86966e+00  1.74648e+00  9.50181e-01
       H -3.75403e+00  1.18654e+00 -4.65490e-01
4
# CELL(abcABC): 1000.00000  1000.00000  1000.00000    90.00000    90.00000    90.00000  Step:          13  Bead:       0 positions{angstrom}  cell{angstrom}
       O -3.13276e+00  1.06597e+00  3.44577e-01
       H -3.02884e+00  2.15671e-01  7.22531e-01
       H -2.87024e+00  1.74424e+00  9.37306e-01
       H -3.75934e+00  1.19003e+00 -4.43790e-01
4
# CELL(abcABC): 1000.00000  1000.00000  1000.00000    90.00000    90.00000    90.00000  Step:          14  Bead:       0 positions{angstrom}  cell{angstrom}
       O -3.13221e+00  1.06594e+00  3.43998e-01
       H -3.03412e+00  2.14116e-01  7.20587e-01
       H -2.86914e+00  1.74295e+00  9.25931e-01
       H -3.76388e+00  1.19324e+00 -4.21279e-01
4
# CELL(abcABC): 1000.00000  1000.00000  1000.00000    90.00000    90.00000    90.00000  Step:          15  Bead:       0 positions{angstrom}  cell{angstrom}
       O -3.13189e+00  1.06580e+00  3.42945e-01
       H -3.03979e+00  2.11332e-01  7.22211e-01
       H -2.86715e+00  1.74332e+00  9.17037e-01
       H -3.76531e+00  1.19796e+00 -3.97291e-01
4
# CELL(abcABC): 1000.00000  1000.00000  1000.00000    90.00000    90.00000    90.00000  Step:          16  Bead:       0 positions{angstrom}  cell{angstrom}
       O -3.13189e+00  1.06551e+00  3.41633e-01
       H -3.04294e+00  2.07952e-01  7.24787e-01
       H -2.86367e+00  1.74635e+00  9.10887e-01
       H -3.76552e+00  1.20297e+00 -3.72890e-01
4
# CELL(abcABC): 1000.00000  1000.00000  1000.00000    90.00000    90.00000    90.00000  Step:          17  Bead:       0 positions{angstrom}  cell{angstrom}
       O -3.13207e+00  1.06509e+00  3.40101e-01
       H -3.04400e+00  2.05406e-01  7.28627e-01
       H -2.85961e+00  1.75159e+00  9.06361e-01
       H -3.76578e+00  1.20688e+00 -3.47897e-01
4
# CELL(abcABC): 1000.00000  1000.00000  1000.00000    90.00000    90.00000    90.00000  Step:          18  Bead:       0 positions{angstrom}  cell{angstrom}
       O -3.13241e+00  1.06446e+00  3.38427e-01
       H -3.04483e+00  2.04612e-01  7.33400e-01
       H -2.85306e+00  1.75794e+00  9.03890e-01
       H -3.76610e+00  1.21137e+00 -3.23620e-01
4
# CELL(abcABC): 1000.00000  1000.00000  1000.00000    90.00000    90.00000    90.00000  Step:          19  Bead:       0 positions{angstrom}  cell{angstrom}
       O -3.13299e+00  1.06377e+00  3.36690e-01
       H -3.04405e+00  2.04945e-01  7.39122e-01
       H -2.84623e+00  1.76402e+00  9.02128e-01
       H -3.76451e+00  1.21583e+00 -3.00013e-01
4
# CELL(abcABC): 1000.00000  1000.00000  1000.00000    90.00000    90.00000    90.00000  Step:          20  Bead:       0 positions{angstrom}  cell{angstrom}
       O -3.13365e+00  1.06307e+00  3.35072e-01
       H -3.04207e+00  2.07206e-01  7.43637e-01
       H -2.83963e+00  1.76964e+00  9.01196e-01
       H -3.76254e+00  1.21904e+00 -2.77913e-01
4
# CELL(abcABC): 1000.00000  1000.00000  1000.00000    90.00000    90.00000    90.00000  Step:          21  Bead:       0 positions{angstrom}  cell{angstrom}
       O -3.13443e+00  1.06237e+00  3.33689e-01
       H -3.03946e+00  2.10381e-01  7.46951e-01
       H -2.83104e+00  1.77450e+00  9.01053e-01
       H -3.76141e+00  1.22219e+00 -2.59136e-01
4
# CELL(abcABC): 1000.00000  1000.00000  1000.00000    90.00000    90.00000    90.00000  Step:          22  Bead:       0 positions{angstrom}  cell{angstrom}
       O -3.13526e+00  1.06164e+00  3.32659e-01
       H -3.03700e+00  2.13865e-01  7.51066e-01
       H -2.82017e+00  1.77751e+00  8.98393e-01
       H -3.76154e+00  1.22719e+00 -2.44235e-01
4
# CELL(abcABC): 1000.00000  1000.00000  1000.00000    90.00000    90.00000    90.00000  Step:          23  Bead:       0 positions{angstrom}  cell{angstrom}
       O -3.13608e+00  1.06101e+00  3.32140e-01
       H -3.03348e+00  2.18842e-01  7.54405e-01
       H -2.80839e+00  1.77839e+00  8.94672e-01
       H -3.76382e+00  1.23139e+00 -2.35614e-01
4
# CELL(abcABC): 1000.00000  1000.00000  1000.00000    90.00000    90.00000    90.00000  Step:          24  Bead:       0 positions{angstrom}  cell{angstrom}
       O -3.13686e+00  1.06042e+00  3.31982e-01
       H -3.02852e+00  2.23373e-01  7.57498e-01
       H -2.79632e+00  1.77746e+00  8.89410e-01
       H -3.76847e+00  1.23716e+00 -2.30934e-01
4
# CELL(abcABC): 1000.00000  1000.00000  1000.00000    90.00000    90.00000    90.00000  Step:          25  Bead:       0 positions{angstrom}  cell{angstrom}
       O -3.13752e+00  1.06009e+00  3.32085e-01
       H -3.02280e+00  2.27089e-01  7.61295e-01
       H -2.78475e+00  1.77290e+00  8.82408e-01
       H -3.77526e+00  1.24328e+00 -2.29365e-01
4
# CELL(abcABC): 1000.00000  1000.00000  1000.00000    90.00000    90.00000    90.00000  Step:          26  Bead:       0 positions{angstrom}  cell{angstrom}
       O -3.13810e+00  1.06001e+00  3.32487e-01
       H -3.01632e+00  2.30109e-01  7.64286e-01
       H -2.77294e+00  1.76538e+00  8.73447e-01
       H -3.78439e+00  1.24905e+00 -2.29777e-01
4
# CELL(abcABC): 1000.00000  1000.00000  1000.00000    90.00000    90.00000    90.00000  Step:          27  Bead:       0 positions{angstrom}  cell{angstrom}
       O -3.13873e+00  1.06006e+00  3.33192e-01
       H -3.00932e+00  2.33891e-01  7.66473e-01
       H -2.76096e+00  1.75501e+00  8.62802e-01
       H -3.79339e+00  1.25490e+00 -2.32516e-01
4
# CELL(abcABC): 1000.00000  1000.00000  1000.00000    90.00000    90.00000    90.00000  Step:          28  Bead:       0 positions{angstrom}  cell{angstrom}
       O -3.13930e+00  1.06021e+00  3.34046e-01
       H -3.00270e+00  2.35679e-01  7.68391e-01
       H -2.74782e+00  1.74372e+00  8.51703e-01
       H -3.80406e+00  1.26198e+00 -2.36889e-01
4
# CELL(abcABC): 1000.00000  1000.00000  1000.00000    90.00000    90.00000    90.00000  Step:          29  Bead:       0 positions{angstrom}  cell{angstrom}
       O -3.13995e+00  1.06036e+00  3.35059e-01
       H -2.99478e+00  2.37247e-01  7.68686e-01
       H -2.73459e+00  1.73247e+00  8.40596e-01
       H -3.81490e+00  1.26932e+00 -2.42155e-01
4
# CELL(abcABC): 1000.00000  1000.00000  1000.00000    90.00000    90.00000    90.00000  Step:          30  Bead:       0 positions{angstrom}  cell{angstrom}
       O -3.14071e+00  1.06037e+00  3.36112e-01
       H -2.98592e+00  2.39164e-01  7.69485e-01
       H -2.72006e+00  1.72235e+00  8.30596e-01
       H -3.82625e+00  1.27735e+00 -2.49663e-01
4
# CELL(abcABC): 1000.00000  1000.00000  1000.00000    90.00000    90.00000    90.00000  Step:          31  Bead:       0 positions{angstrom}  cell{angstrom}
       O -3.14175e+00  1.06018e+00  3.37244e-01
       H -2.97501e+00  2.40452e-01  7.70187e-01
       H -2.70300e+00  1.71544e+00  8.21139e-01
       H -3.83761e+00  1.28590e+00 -2.58886e-01
4
# CELL(abcABC): 1000.00000  1000.00000  1000.00000    90.00000    90.00000    90.00000  Step:          32  Bead:       0 positions{angstrom}  cell{angstrom}
       O -3.14295e+00  1.06000e+00  3.38192e-01
       H -2.96466e+00  2.39009e-01  7.71149e-01
       H -2.68339e+00  1.71223e+00  8.14172e-01
       H -3.84858e+00  1.29350e+00 -2.67927e-01
4
# CELL(abcABC): 1000.00000  1000.00000  1000.00000    90.00000    90.00000    90.00000  Step:          33  Bead:       0 positions{angstrom}  cell{angstrom}
       O -3.14429e+00  1.05986e+00  3.39043e-01
       H -2.95471e+00  2.36245e-01  7.72761e-01
       H -2.66175e+00  1.71014e+00  8.08614e-01
       H -3.85891e+00  1.30046e+00 -2.77488e-01
4
# CELL(abcABC): 1000.00000  1000.00000  1000.00000    90.00000    90.00000    90.00000  Step:          34  Bead:       0 positions{angstrom}  cell{angstrom}
       O -3.14561e+00  1.05972e+00  3.40046e-01
       H -2.94444e+00  2.33067e-01  7.73286e-01
       H -2.64090e+00  1.70897e+00  8.03727e-01
       H -3.86908e+00  1.30706e+00 -2.89051e-01
4
# CELL(abcABC): 1000.00000  1000.00000  1000.00000    90.00000    90.00000    90.00000  Step:          35  Bead:       0 positions{angstrom}  cell{angstrom}
       O -3.14703e+00  1.05954e+00  3.41153e-01
       H -2.93286e+00  2.29979e-01  7.71799e-01
       H -2.62097e+00  1.70937e+00  7.99257e-01
       H -3.87811e+00  1.31270e+00 -3.00661e-01
4
# CELL(abcABC): 1000.00000  1000.00000  1000.00000    90.00000    90.00000    90.00000  Step:          36  Bead:       0 positions{angstrom}  cell{angstrom}
       O -3.14848e+00  1.05929e+00  3.42424e-01
       H -2.92165e+00  2.27418e-01  7.68237e-01
       H -2.60143e+00  1.71089e+00  7.93077e-01
       H -3.88577e+00  1.31761e+00 -3.11100e-01
4
# CELL(abcABC): 1000.00000  1000.00000  1000.00000    90.00000    90.00000    90.00000  Step:          37  Bead:       0 positions{angstrom}  cell{angstrom}
       O -3.14995e+00  1.05917e+00  3.43759e-01
       H -2.91061e+00  2.26406e-01  7.64735e-01
       H -2.58268e+00  1.71084e+00  7.84989e-01
       H -3.89225e+00  1.32058e+00 -3.20695e-01
4
# CELL(abcABC): 1000.00000  1000.00000  1000.00000    90.00000    90.00000    90.00000  Step:          38  Bead:       0 positions{angstrom}  cell{angstrom}
       O -3.15118e+00  1.05915e+00  3.45443e-01
       H -2.90152e+00  2.26008e-01  7.58294e-01
       H -2.56570e+00  1.70815e+00  7.74832e-01
       H -3.89885e+00  1.32399e+00 -3.30822e-01
4
# CELL(abcABC): 1000.00000  1000.00000  1000.00000    90.00000    90.00000    90.00000  Step:          39  Bead:       0 positions{angstrom}  cell{angstrom}
       O -3.15246e+00  1.05939e+00  3.47190e-01
       H -2.89274e+00  2.25729e-01  7.50719e-01
       H -2.55043e+00  1.70246e+00  7.63695e-01
       H -3.90248e+00  1.32623e+00 -3.39840e-01
4
# CELL(abcABC): 1000.00000  1000.00000  1000.00000    90.00000    90.00000    90.00000  Step:          40  Bead:       0 positions{angstrom}  cell{angstrom}
       O -3.15368e+00  1.05971e+00  3.48886e-01
       H -2.88503e+00  2.26156e-01  7.42600e-01
       H -2.53707e+00  1.69511e+00  7.52426e-01
       H -3.90420e+00  1.32794e+00 -3.47383e-01
4
# CELL(abcABC): 1000.00000  1000.00000  1000.00000    90.00000    90.00000    90.00000  Step:          41  Bead:       0 positions{angstrom}  cell{angstrom}
       O -3.15479e+00  1.06015e+00  3.50623e-01
       H -2.87878e+00  2.27644e-01  7.32733e-01
       H -2.52523e+00  1.68654e+00  7.39939e-01
       H -3.90477e+00  1.32803e+00 -3.52597e-01
4
# CELL(abcABC): 1000.00000  1000.00000  1000.00000    90.00000    90.00000    90.00000  Step:          42  Bead:       0 positions{angstrom}  cell{angstrom}
       O -3.15590e+00  1.06087e+00  3.52456e-01
       H -2.87221e+00  2.27165e-01  7.21486e-01
       H -2.51507e+00  1.67682e+00  7.26606e-01
       H -3.90382e+00  1.32692e+00 -3.57111e-01
4
# CELL(abcABC): 1000.00000  1000.00000  1000.00000    90.00000    90.00000    90.00000  Step:          43  Bead:       0 positions{angstrom}  cell{angstrom}
       O -3.15692e+00  1.06164e+00  3.54304e-01
       H -2.86703e+00  2.27145e-01  7.09014e-01
       H -2.50635e+00  1.66777e+00  7.12697e-01
       H -3.90157e+00  1.32371e+00 -3.60058e-01
4
# CELL(abcABC): 1000.00000  1000.00000  1000.00000    90.00000    90.00000    90.00000  Step:          44  Bead:       0 positions{angstrom}  cell{angstrom}
       O -3.15785e+00  1.06256e+00  3.56108e-01
       H -2.86270e+00  2.25754e-01  6.95285e-01
       H -2.49871e+00  1.65824e+00  6.97919e-01
       H -3.89875e+00  1.32008e+00 -3.60187e-01
4
# CELL(abcABC): 1000.00000  1000.00000  1000.00000    90.00000    90.00000    90.00000  Step:          45  Bead:       0 positions{angstrom}  cell{angstrom}
       O -3.15865e+00  1.06358e+00  3.57886e-01
       H -2.85995e+00  2.23587e-01  6.80450e-01
       H -2.49099e+00  1.64868e+00  6.82370e-01
       H -3.89644e+00  1.31564e+00 -3.58032e-01
4
# CELL(abcABC): 1000.00000  1000.00000  1000.00000    90.00000    90.00000    90.00000  Step:          46  Bead:       0 positions{angstrom}  cell{angstrom}
       O -3.15951e+00  1.06466e+00  3.59573e-01
       H -2.85822e+00  2.20966e-01  6.64921e-01
       H -2.48336e+00  1.63951e+00  6.66782e-01
       H -3.89226e+00  1.31024e+00 -3.53691e-01
4
# CELL(abcABC): 1000.00000  1000.00000  1000.00000    90.00000    90.00000    90.00000  Step:          47  Bead:       0 positions{angstrom}  cell{angstrom}
       O -3.16037e+00  1.06563e+00  3.61228e-01
       H -2.85732e+00  2.16888e-01  6.49547e-01
       H -2.47499e+00  1.63238e+00  6.51092e-01
       H -3.88778e+00  1.30602e+00 -3.48895e-01
4
# CELL(abcABC): 1000.00000  1000.00000  1000.00000    90.00000    90.00000    90.00000  Step:          48  Bead:       0 positions{angstrom}  cell{angstrom}
       O -3.16128e+00  1.06665e+00  3.62695e-01
       H -2.85676e+00  2.10640e-01  6.34486e-01
       H -2.46564e+00  1.62802e+00  6.35621e-01
       H -3.88336e+00  1.30039e+00 -3.41661e-01
4
# CELL(abcABC): 1000.00000  1000.00000  1000.00000    90.00000    90.00000    90.00000  Step:          49  Bead:       0 positions{angstrom}  cell{angstrom}
       O -3.16226e+00  1.06760e+00  3.63868e-01
       H -2.85699e+00  2.03148e-01  6.20037e-01
       H -2.45407e+00  1.62558e+00  6.21271e-01
       H -3.87900e+00  1.29527e+00 -3.31471e-01
4
# CELL(abcABC): 1000.00000  1000.00000  1000.00000    90.00000    90.00000    90.00000  Step:          50  Bead:       0 positions{angstrom}  cell{angstrom}
       O -3.16308e+00  1.06852e+00  3.64969e-01
       H -2.85855e+00  1.95547e-01  6.05304e-01
       H -2.44358e+00  1.62430e+00  6.07883e-01
       H -3.87497e+00  1.28957e+00 -3.20831e-01
4
# CELL(abcABC): 1000.00000  1000.00000  1000.00000    90.00000    90.00000    90.00000  Step:          51  Bead:       0 positions{angstrom}  cell{angstrom}
       O -3.16385e+00  1.06931e+00  3.65926e-01
       H -2.86163e+00  1.87852e-01  5.90128e-01
       H -2.43323e+00  1.62482e+00  5.95107e-01
       H -3.86997e+00  1.28416e+00 -3.08074e-01
4
# CELL(abcABC): 1000.00000  1000.00000  1000.00000    90.00000    90.00000    90.00000  Step:          52  Bead:       0 positions{angstrom}  cell{angstrom}
       O -3.16449e+00  1.07008e+00  3.66854e-01
       H -2.86638e+00  1.80783e-01  5.74981e-01
       H -2.42362e+00  1.62576e+00  5.81792e-01
       H -3.86471e+00  1.27817e+00 -2.94334e-01
4
# CELL(abcABC): 1000.00000  1000.00000  1000.00000    90.00000    90.00000    90.00000  Step:          53  Bead:       0 positions{angstrom}  cell{angstrom}
       O -3.16498e+00  1.07069e+00  3.67620e-01
       H -2.87187e+00  1.75516e-01  5.59014e-01
       H -2.41534e+00  1.62864e+00  5.69600e-01
       H -3.85973e+00  1.27086e+00 -2.78339e-01
4
# CELL(abcABC): 1000.00000  1000.00000  1000.00000    90.00000    90.00000    90.00000  Step:          54  Bead:       0 positions{angstrom}  cell{angstrom}
       O -3.16523e+00  1.07128e+00  3.68000e-01
       H -2.87867e+00  1.70857e-01  5.44375e-01
       H -2.40911e+00  1.63223e+00  5.58612e-01
       H -3.85517e+00  1.26258e+00 -2.58745e-01
4
# CELL(abcABC): 1000.00000  1000.00000  1000.00000    90.00000    90.00000    90.00000  Step:          55  Bead:       0 positions{angstrom}  cell{angstrom}
       O -3.16527e+00  1.07179e+00  3.68226e-01
       H -2.88714e+00  1.68009e-01  5.30926e-01
       H -2.40484e+00  1.63548e+00  5.48707e-01
       H -3.85030e+00  1.25406e+00 -2.38969e-01
4
# CELL(abcABC): 1000.00000  1000.00000  1000.00000    90.00000    90.00000    90.00000  Step:          56  Bead:       0 positions{angstrom}  cell{angstrom}
       O -3.16511e+00  1.07219e+00  3.68335e-01
       H -2.89427e+00  1.67038e-01  5.18682e-01
       H -2.40310e+00  1.63766e+00  5.38130e-01
       H -3.84750e+00  1.24652e+00 -2.17888e-01
4
# CELL(abcABC): 1000.00000  1000.00000  1000.00000    90.00000    90.00000    90.00000  Step:          57  Bead:       0 positions{angstrom}  cell{angstrom}
       O -3.16467e+00  1.07248e+00  3.68289e-01
       H -2.90032e+00  1.68040e-01  5.07745e-01
       H -2.40476e+00  1.63841e+00  5.29030e-01
       H -3.84686e+00  1.24013e+00 -1.97124e-01
4
# CELL(abcABC): 1000.00000  1000.00000  1000.00000    90.00000    90.00000    90.00000  Step:          58  Bead:       0 positions{angstrom}  cell{angstrom}
       O -3.16405e+00  1.07276e+00  3.68148e-01
       H -2.90536e+00  1.69258e-01  4.97606e-01
       H -2.40797e+00  1.63827e+00  5.21195e-01
       H -3.84835e+00  1.23457e+00 -1.76899e-01
4
# CELL(abcABC): 1000.00000  1000.00000  1000.00000    90.00000    90.00000    90.00000  Step:          59  Bead:       0 positions{angstrom}  cell{angstrom}
       O -3.16329e+00  1.07294e+00  3.67800e-01
       H -2.90921e+00  1.71131e-01  4.88655e-01
       H -2.41219e+00  1.63802e+00  5.15758e-01
       H -3.85232e+00  1.23005e+00 -1.56992e-01
4
# CELL(abcABC): 1000.00000  1000.00000  1000.00000    90.00000    90.00000    90.00000  Step:          60  Bead:       0 positions{angstrom}  cell{angstrom}
       O -3.16243e+00  1.07313e+00  3.67415e-01
       H -2.91347e+00  1.72709e-01  4.80976e-01
       H -2.41623e+00  1.63683e+00  5.09710e-01
       H -3.85776e+00  1.22675e+00 -1.37154e-01
4
# CELL(abcABC): 1000.00000  1000.00000  1000.00000    90.00000    90.00000    90.00000  Step:          61  Bead:       0 positions{angstrom}  cell{angstrom}
       O -3.16157e+00  1.07331e+00  3.66979e-01
       H -2.91595e+00  1.73405e-01  4.74298e-01
       H -2.41887e+00  1.63544e+00  5.03447e-01
       H -3.86626e+00  1.22460e+00 -1.17294e-01
4
# CELL(abcABC): 1000.00000  1000.00000  1000.00000    90.00000    90.00000    90.00000  Step:          62  Bead:       0 positions{angstrom}  cell{angstrom}
       O -3.16059e+00  1.07352e+00  3.66600e-01
       H -2.91812e+00  1.72679e-01  4.68440e-01
       H -2.42195e+00  1.63386e+00  4.97802e-01
       H -3.87651e+00  1.22349e+00 -9.97696e-02
4
# CELL(abcABC): 1000.00000  1000.00000  1000.00000    90.00000    90.00000    90.00000  Step:          63  Bead:       0 positions{angstrom}  cell{angstrom}
       O -3.15956e+00  1.07356e+00  3.65989e-01
       H -2.91880e+00  1.72353e-01  4.64297e-01
       H -2.42400e+00  1.63217e+00  4.93159e-01
       H -3.89021e+00  1.22493e+00 -8.12902e-02
4
# CELL(abcABC): 1000.00000  1000.00000  1000.00000    90.00000    90.00000    90.00000  Step:          64  Bead:       0 positions{angstrom}  cell{angstrom}
       O -3.15860e+00  1.07349e+00  3.65253e-01
       H -2.91700e+00  1.71787e-01  4.62350e-01
       H -2.42386e+00  1.63118e+00  4.89745e-01
       H -3.90741e+00  1.22752e+00 -6.42431e-02
4
# CELL(abcABC): 1000.00000  1000.00000  1000.00000    90.00000    90.00000    90.00000  Step:          65  Bead:       0 positions{angstrom}  cell{angstrom}
       O -3.15771e+00  1.07326e+00  3.64446e-01
       H -2.91479e+00  1.71506e-01  4.60452e-01
       H -2.42100e+00  1.63248e+00  4.87348e-01
       H -3.92664e+00  1.23024e+00 -4.71499e-02
4
# CELL(abcABC): 1000.00000  1000.00000  1000.00000    90.00000    90.00000    90.00000  Step:          66  Bead:       0 positions{angstrom}  cell{angstrom}
       O -3.15690e+00  1.07282e+00  3.63450e-01
       H -2.91151e+00  1.73626e-01  4.60298e-01
       H -2.41619e+00  1.63317e+00  4.86347e-01
       H -3.94747e+00  1.23442e+00 -3.01805e-02
4
# CELL(abcABC): 1000.00000  1000.00000  1000.00000    90.00000    90.00000    90.00000  Step:          67  Bead:       0 positions{angstrom}  cell{angstrom}
       O -3.15610e+00  1.07239e+00  3.62348e-01
       H -2.90684e+00  1.74583e-01  4.60331e-01
       H -2.40951e+00  1.63453e+00  4.86818e-01
       H -3.97162e+00  1.23892e+00 -1.31932e-02
4
# CELL(abcABC): 1000.00000  1000.00000  1000.00000    90.00000    90.00000    90.00000  Step:          68  Bead:       0 positions{angstrom}  cell{angstrom}
       O -3.15537e+00  1.07189e+00  3.61292e-01
       H -2.90045e+00  1.74922e-01  4.60962e-01
       H -2.40180e+00  1.63612e+00  4.86477e-01
       H -3.99729e+00  1.24490e+00  3.28065e-03
4
# CELL(abcABC): 1000.00000  1000.00000  1000.00000    90.00000    90.00000    90.00000  Step:          69  Bead:       0 positions{angstrom}  cell{angstrom}
       O -3.15460e+00  1.07152e+00  3.59965e-01
       H -2.89346e+00  1.73383e-01  4.63996e-01
       H -2.39483e+00  1.63750e+00  4.87605e-01
       H -4.02346e+00  1.25094e+00  2.01938e-02
4
# CELL(abcABC): 1000.00000  1000.00000  1000.00000    90.00000    90.00000    90.00000  Step:          70  Bead:       0 positions{angstrom}  cell{angstrom}
       O -3.15399e+00  1.07104e+00  3.58562e-01
       H -2.88530e+00  1.72377e-01  4.66724e-01
       H -2.38836e+00  1.63897e+00  4.88818e-01
       H -4.04781e+00  1.25810e+00  3.85180e-02
4
# CELL(abcABC): 1000.00000  1000.00000  1000.00000    90.00000    90.00000    90.00000  Step:          71  Bead:       0 positions{angstrom}  cell{angstrom}
       O -3.15331e+00  1.07067e+00  3.57166e-01
       H -2.87725e+00  1.70448e-01  4.68525e-01
       H -2.38364e+00  1.63894e+00  4.89756e-01
       H -4.07136e+00  1.26592e+00  5.79377e-02
4
# CELL(abcABC): 1000.00000  1000.00000  1000.00000    90.00000    90.00000    90.00000  Step:          72  Bead:       0 positions{angstrom}  cell{angstrom}
       O -3.15264e+00  1.07022e+00  3.55676e-01
       H -2.86849e+00  1.69312e-01  4.70901e-01
       H -2.38041e+00  1.63795e+00  4.91471e-01
       H -4.09395e+00  1.27514e+00  7.74997e-02
4
# CELL(abcABC): 1000.00000  1000.00000  1000.00000    90.00000    90.00000    90.00000  Step:          73  Bead:       0 positions{angstrom}  cell{angstrom}
       O -3.15190e+00  1.06982e+00  3.54228e-01
       H -2.85974e+00  1.68826e-01  4.73270e-01
       H -2.37909e+00  1.63618e+00  4.93138e-01
       H -4.11572e+00  1.28381e+00  9.64477e-02
4
# CELL(abcABC): 1000.00000  1000.00000  1000.00000    90.00000    90.00000    90.00000  Step:          74  Bead:       0 positions{angstrom}  cell{angstrom}
       O -3.15118e+00  1.06935e+00  3.52928e-01
       H -2.85074e+00  1.69436e-01  4.74343e-01
       H -2.37972e+00  1.63343e+00  4.93493e-01
       H -4.13560e+00  1.29342e+00  1.15650e-01
4
# CELL(abcABC): 1000.00000  1000.00000  1000.00000    90.00000    90.00000    90.00000  Step:          75  Bead:       0 positions{angstrom}  cell{angstrom}
       O -3.15029e+00  1.06889e+00  3.51634e-01
       H -2.84247e+00  1.70143e-01  4.74755e-01
       H -2.38272e+00  1.62933e+00  4.94427e-01
       H -4.15494e+00  1.30407e+00  1.34842e-01
4
# CELL(abcABC): 1000.00000  1000.00000  1000.00000    90.00000    90.00000    90.00000  Step:          76  Bead:       0 positions{angstrom}  cell{angstrom}
       O -3.14952e+00  1.06826e+00  3.50230e-01
       H -2.83371e+00  1.72218e-01  4.76055e-01
       H -2.38717e+00  1.62498e+00  4.95301e-01
       H -4.17148e+00  1.31635e+00  1.54954e-01
4
# CELL(abcABC): 1000.00000  1000.00000  1000.00000    90.00000    90.00000    90.00000  Step:          77  Bead:       0 positions{angstrom}  cell{angstrom}
       O -3.14874e+00  1.06753e+00  3.48808e-01
       H -2.82551e+00  1.76227e-01  4.77106e-01
       H -2.39281e+00  1.62116e+00  4.96687e-01
       H -4.18644e+00  1.32779e+00  1.75086e-01
4
# CELL(abcABC): 1000.00000  1000.00000  1000.00000    90.00000    90.00000    90.00000  Step:          78  Bead:       0 positions{angstrom}  cell{angstrom}
       O -3.14802e+00  1.06673e+00  3.47574e-01
       H -2.81899e+00  1.80251e-01  4.76924e-01
       H -2.39764e+00  1.61879e+00  4.97786e-01
       H -4.19947e+00  1.33880e+00  1.93760e-01
4
# CELL(abcABC): 1000.00000  1000.00000  1000.00000    90.00000    90.00000    90.00000  Step:          79  Bead:       0 positions{angstrom}  cell{angstrom}
       O -3.14754e+00  1.06597e+00  3.46339e-01
       H -2.81362e+00  1.85081e-01  4.77687e-01
       H -2.40053e+00  1.61679e+00  4.98680e-01
       H -4.20962e+00  1.34809e+00  2.11712e-01
4
# CELL(abcABC): 1000.00000  1000.00000  1000.00000    90.00000    90.00000    90.00000  Step:          80  Bead:       0 positions{angstrom}  cell{angstrom}
       O -3.14736e+00  1.06518e+00  3.45035e-01
       H -2.80831e+00  1.89971e-01  4.78134e-01
       H -2.40191e+00  1.61602e+00  5.00619e-01
       H -4.21648e+00  1.35640e+00  2.30026e-01
4
# CELL(abcABC): 1000.00000  1000.00000  1000.00000    90.00000    90.00000    90.00000  Step:          81  Bead:       0 positions{angstrom}  cell{angstrom}
       O -3.14746e+00  1.06426e+00  3.43843e-01
       H -2.80130e+00  1.95019e-01  4.77628e-01
       H -2.40262e+00  1.61871e+00  5.02692e-01
       H -4.22119e+00  1.36329e+00  2.47379e-01
4
# CELL(abcABC): 1000.00000  1000.00000  1000.00000    90.00000    90.00000    90.00000  Step:          82  Bead:       0 positions{angstrom}  cell{angstrom}
       O -3.14776e+00  1.06352e+00  3.42620e-01
       H -2.79391e+00  1.98332e-01  4.77544e-01
       H -2.40199e+00  1.62166e+00  5.04523e-01
       H -4.22437e+00  1.36881e+00  2.65041e-01
4
# CELL(abcABC): 1000.00000  1000.00000  1000.00000    90.00000    90.00000    90.00000  Step:          83  Bead:       0 positions{angstrom}  cell{angstrom}
       O -3.14827e+00  1.06279e+00  3.41482e-01
       H -2.78685e+00  2.00748e-01  4.77498e-01
       H -2.40083e+00  1.62619e+00  5.06017e-01
       H -4.22444e+00  1.37351e+00  2.81653e-01
4
# CELL(abcABC): 1000.00000  1000.00000  1000.00000    90.00000    90.00000    90.00000  Step:          84  Bead:       0 positions{angstrom}  cell{angstrom}
       O -3.14889e+00  1.06216e+00  3.40484e-01
       H -2.77916e+00  2.01070e-01  4.75972e-01
       H -2.40074e+00  1.63173e+00  5.06843e-01
       H -4.22241e+00  1.37761e+00  2.98194e-01
4
# CELL(abcABC): 1000.00000  1000.00000  1000.00000    90.00000    90.00000    90.00000  Step:          85  Bead:       0 positions{angstrom}  cell{angstrom}