11135
# CELL(abcABC):   47.46614    47.46614    47.46614    90.00000    90.00000    90.00000  Step:        2550  Bead:       0 positions{angstrom}  cell{angstrom}
       C -7.89614e+00 -2.63184e+00 -1.53086e+00
       H -7.79037e+00 -3.39141e+00 -2.38082e+00
       H -8.95890e+00 -2.26250e+00 -1.71440e+00
       H -7.75852e+00 -3.16655e+00 -5.77833e-01
       C -6.98617e+00 -1.52803e+00 -1.69485e+00
       O -6.54137e+00 -1.18677e+00 -2.77930e+00
       N -6.64858e+00 -9.08454e-01 -5.38240e-01
       H -7.15030e+00 -1.18464e+00  2.65168e-01
       C -5.75743e+00  2.35652e-01 -4.06663e-01
       H -5.12321e+00  3.99408e-01 -1.24590e+00
       C -6.49927e+00  1.57148e+00 -3.31198e-01
       H -5.83415e+00  2.44917e+00 -3.43082e-01
       H -7.19413e+00  1.68216e+00  5.46477e-01
       C -7.33738e+00  1.75177e+00 -1.61602e+00
       H -8.29128e+00  1.29467e+00 -1.49510e+00
       H -6.82373e+00  1.24131e+00 -2.40556e+00
       C -7.63951e+00  3.19971e+00 -2.00385e+00
       H -6.67887e+00  3.71215e+00 -2.19336e+00
       H -8.03665e+00  3.67791e+00 -1.05997e+00
       C -8.67710e+00  3.35755e+00 -3.07199e+00
       H -8.90497e+00  4.37767e+00 -3.25110e+00
       H -9.55277e+00  2.93108e+00 -2.65789e+00
       N -8.36002e+00  2.76197e+00 -4.38427e+00
       H -7.36572e+00  2.94405e+00 -4.61896e+00
       H -9.12293e+00  3.19221e+00 -5.29709e+00
       H -8.37900e+00  1.73857e+00 -4.22743e+00
       C -4.76370e+00 -6.78545e-02  7.16956e-01
       O -4.69935e+00  6.24055e-01  1.76322e+00
       N -3.85410e+00 -1.01139e+00  4.48445e-01
       H -3.98486e+00 -1.62271e+00 -3.46587e-01
       H -3.26022e+00 -1.16781e+00  1.17540e+00
       O -1.36660e+01 -9.49115e+00 -2.28525e+01
       H -1.33701e+01 -8.74790e+00 -2.33846e+01
       H -1.39824e+01 -1.00591e+01 -2.35575e+01
       O -1.92680e+01 -4.56239e+00 -7.56674e+00
       H -1.91491e+01 -4.53689e+00 -8.57481e+00
       H -1.88938e+01 -3.69776e+00 -7.34912e+00
       O  9.53049e+00 -1.39218e+01 -2.59801e+00
       H  9.13013e+00 -1.36663e+01 -1.69418e+00
       H  8.81021e+00 -1.43542e+01 -3.11017e+00
       O -2.46693e+01 -1.24554e+01 -2.38150e+01
       H -2.53746e+01 -1.29870e+01 -2.34448e+01
       H -2.50696e+01 -1.22888e+01 -2.46645e+01
       O -1.34145e+01 -1.25337e+01 -2.20229e+01
       H -1.31092e+01 -1.31184e+01 -2.27515e+01
       H -1.26709e+01 -1.27011e+01 -2.13883e+01
       O  2.05669e+01 -2.22820e+01  1.82516e+01
       H  1.97196e+01 -2.18890e+01  1.82762e+01
       H  2.11513e+01 -2.15068e+01  1.80191e+01
       O -1.86143e+01 -9.80561e+00 -7.86340e+00
       H -1.94330e+01 -1.02142e+01 -7.54825e+00
       H -1.82395e+01 -9.59505e+00 -6.98941e+00
       O  1.93096e+01 -2.46335e+01 -1.22044e+01
       H  1.90104e+01 -2.51689e+01 -1.14528e+01
       H  1.87700e+01 -2.50115e+01 -1.29479e+01
       O -1.43601e+01 -1.88352e+01 -4.39413e+00
       H -1.41540e+01 -1.97075e+01 -4.76045e+00
       H -1.45894e+01 -1.83140e+01 -5.16403e+00
       O  1.50795e+01 -1.90476e+01 -9.29095e+00
       H  1.57165e+01 -1.97304e+01 -9.55701e+00
       H  1.44738e+01 -1.96630e+01 -8.78258e+00
       O -3.23955e+01 -1.02937e+01 -9.71057e-01
       H -3.23472e+01 -1.09970e+01 -3.05845e-01
       H -3.15282e+01 -1.04403e+01 -1.33929e+00
       O  9.32553e+00 -2.90985e+01 -8.70802e+00
       H  9.90830e+00 -2.94622e+01 -8.03249e+00
       H  9.31637e+00 -2.99923e+01 -9.21817e+00
       O  1.16697e+01  1.62337e+01 -1.03691e+01
       H  1.23596e+01  1.55507e+01 -1.04398e+01
       H  1.08805e+01  1.57079e+01 -1.05387e+01
       O -3.42274e+01 -1.08877e+01 -8.79246e+00
       H -3.35109e+01 -1.02958e+01 -9.09917e+00
       H -3.36671e+01 -1.15322e+01 -8.26144e+00
       O -4.81251e+00 -2.00368e+01 -2.60261e+01
       H -5.46196e+00 -1.97706e+01 -2.53686e+01
       H -4.27497e+00 -1.92848e+01 -2.60958e+01
       O -2.35690e+00 -9.07113e+00 -8.53040e+00
       H -2.10746e+00 -8.20134e+00 -8.74552e+00
       H -3.34233e+00 -8.91289e+00 -8.69724e+00
       O -8.49542e+00 -1.41089e+01  1.48996e+00
       H -9.09629e+00 -1.34662e+01  1.05485e+00
       H -7.82315e+00 -1.42497e+01  7.70911e-01
       O -1.48143e+00 -1.52120e+01 -2.50153e+01
       H -1.76371e+00 -1.46636e+01 -2.57708e+01
       H -7.78411e-01 -1.58455e+01 -2.54420e+01
       O -1.71269e+00 -1.77932e+01 -1.25739e+01
       H -1.42176e+00 -1.77082e+01 -1.16212e+01
       H -2.18086e+00 -1.86423e+01 -1.24885e+01
       O -1.44398e+01  1.77314e+01  6.73651e-01
       H -1.53134e+01  1.74005e+01  3.37831e-01
       H -1.40149e+01  1.69110e+01  9.49580e-01
       O -2.53819e+01 -4.84606e+00 -9.22139e+00
       H -2.59160e+01 -4.13318e+00 -8.82240e+00
       H -2.48292e+01 -4.93058e+00 -8.42158e+00
       O -2.27801e+01 -1.43576e+01 -7.58281e+00
       H -2.36451e+01 -1.43657e+01 -7.13983e+00
       H -2.28115e+01 -1.33751e+01 -7.79146e+00
       O  2.01309e+01 -1.71907e+01 -2.18151e+01
       H  2.03561e+01 -1.72222e+01 -2.09317e+01
       H  1.92621e+01 -1.75688e+01 -2.16542e+01
       O -1.82128e+01 -1.53609e+01 -1.48068e+01
       H -1.91078e+01 -1.56392e+01 -1.44805e+01
       H -1.82336e+01 -1.44577e+01 -1.44495e+01
       O -4.53795e+00 -2.16930e+01 -1.40869e+01
       H -4.54239e+00 -2.26241e+01 -1.44000e+01
       H -4.86081e+00 -2.12631e+01 -1.48606e+01
       O -1.90266e+01 -2.13817e+01  2.09218e+01
       H -1.82897e+01 -2.14843e+01  2.03408e+01
       H -1.87643e+01 -2.20446e+01  2.15836e+01
       O -5.78501e+00 -3.60149e+01 -1.97335e+01
       H -5.32779e+00 -3.67757e+01 -1.93550e+01
       H -6.72132e+00 -3.61451e+01 -1.94905e+01
       O -5.90374e+00 -4.22434e+00  1.83379e+01
       H -6.21242e+00 -5.13911e+00  1.84223e+01
       H -6.80295e+00 -3.83463e+00  1.83236e+01
       O -1.42948e+01  6.17538e-01  1.25854e+00
       H -1.42989e+01 -3.39595e-01  9.86917e-01
       H -1.42756e+01  5.28217e-01  2.26877e+00
       O -2.60288e+01 -1.24591e+01  2.12962e+01
       H -2.61459e+01 -1.18267e+01  2.05200e+01
       H -2.67782e+01 -1.22033e+01  2.19111e+01
       O -1.93067e+01 -1.48699e+01 -2.39935e+01
       H -1.86053e+01 -1.47178e+01 -2.33044e+01
       H -1.98002e+01 -1.40009e+01 -2.39861e+01
       O  5.10075e+00 -8.55382e+00 -1.96569e+01
       H  5.21267e+00 -7.55581e+00 -1.95785e+01
       H  5.92999e+00 -8.85060e+00 -2.00094e+01
       O  3.97241e+00 -7.39302e+00 -3.10786e+01
       H  3.01745e+00 -7.34159e+00 -3.08496e+01
       H  4.06659e+00 -6.66527e+00 -3.16428e+01
       O -1.00228e+01 -1.70208e+01  6.92540e+00
       H -1.07543e+01 -1.76452e+01  6.99884e+00
       H -1.04506e+01 -1.64269e+01  6.40759e+00
       O -1.61082e+01 -1.41683e+01 -1.24896e+01
       H -1.66791e+01 -1.38047e+01 -1.32187e+01
       H -1.65348e+01 -1.50684e+01 -1.23877e+01
       O -2.46584e+01 -2.09843e+01  1.74205e+01
       H -2.46814e+01 -2.07315e+01  1.65002e+01
       H -2.38150e+01 -2.15124e+01  1.74732e+01
       O -1.58627e+01 -2.45872e+01 -7.75629e+00
       H -1.54036e+01 -2.53636e+01 -8.11125e+00
       H -1.52028e+01 -2.38153e+01 -7.93891e+00
       O -5.96924e+00 -6.93096e+00 -3.48090e+01
       H -6.35473e+00 -7.75680e+00 -3.50037e+01
       H -5.08396e+00 -7.05351e+00 -3.51650e+01
       O -1.12920e+01  6.56072e+00 -1.13600e+01
       H -1.12551e+01  5.88930e+00 -1.20835e+01
       H -1.21963e+01  6.51356e+00 -1.10072e+01
       O -6.48287e+00 -3.07194e+01 -1.78424e+01
       H -6.83464e+00 -3.03667e+01 -1.86535e+01
       H -7.37266e+00 -3.08912e+01 -1.73818e+01
       O  1.60990e+01 -1.86877e+01 -1.44233e+01
       H  1.54183e+01 -1.79873e+01 -1.44583e+01
       H  1.65968e+01 -1.84225e+01 -1.36402e+01
       O -1.32694e+01 -5.68034e+00 -3.76613e+01
       H -1.41907e+01 -5.30285e+00  9.70547e+00
       H -1.29786e+01 -5.40405e+00 -3.85843e+01
       O  1.98033e+01 -2.47196e+01 -9.09635e+00
       H  1.91565e+01 -2.54663e+01 -9.35007e+00
       H  1.93614e+01 -2.43701e+01 -8.31151e+00
       O -1.81002e+01 -8.89956e+00 -1.68374e+01
       H -1.77205e+01 -8.03977e+00 -1.70616e+01
       H -1.75755e+01 -9.42625e+00 -1.75069e+01
       O -2.32035e+01 -1.91154e+01 -1.62905e+01
       H -2.38712e+01 -1.90205e+01 -1.55419e+01
       H -2.23654e+01 -1.94105e+01 -1.58191e+01
       O -2.24405e-01 -1.36322e+01  9.08535e+00
       H  1.51527e-01 -1.32745e+01  9.90778e+00
       H -1.08647e+00 -1.40734e+01  9.33788e+00
       O -1.68969e+01 -1.84215e+01  3.68932e-01
       H -1.64829e+01 -1.83127e+01 -5.45808e-01
       H -1.73841e+01 -1.75302e+01  4.43377e-01
       O  4.49945e+00 -1.56695e+01 -1.21702e+01
       H  4.99551e+00 -1.62361e+01 -1.27558e+01
       H  3.74709e+00 -1.62244e+01 -1.21705e+01
       O  4.43097e+00 -7.00056e+00 -1.61100e+01
       H  5.13718e+00 -6.42421e+00 -1.64351e+01
       H  4.40353e+00 -6.64449e+00 -1.51940e+01
       O -2.16391e+01 -1.79150e+00 -1.88888e+01
       H -2.14371e+01 -2.70455e+00 -1.85638e+01
       H -2.25710e+01 -2.00564e+00 -1.91492e+01
       O -1.57622e+01 -1.11118e+01 -2.71322e+01
       H -1.67170e+01 -1.10019e+01 -2.72720e+01
       H -1.55233e+01 -1.20140e+01 -2.74524e+01
       O -1.21699e+01 -1.41725e+01 -2.39022e+01
       H -1.23066e+01 -1.48847e+01 -2.45967e+01
       H -1.14606e+01 -1.45231e+01 -2.33788e+01
       O -8.96993e+00 -1.29661e+01 -2.67343e+01
       H -8.08334e+00 -1.25614e+01 -2.67906e+01
       H -9.26838e+00 -1.24733e+01 -2.59534e+01
       O -1.34437e+01 -2.08276e+00 -8.35552e+00
       H -1.27622e+01 -1.52501e+00 -7.83914e+00
       H -1.30433e+01 -2.94285e+00 -8.41931e+00
       O  6.36394e+00 -5.86510e+00 -2.05583e+01
       H  6.81727e+00 -6.13632e+00 -1.97193e+01
       H  7.05015e+00 -6.10973e+00 -2.12048e+01
       O -1.66563e+01 -9.91151e+00  1.49160e+00
       H -1.69692e+01 -1.00620e+01  6.31304e-01
       H -1.58829e+01 -1.04818e+01  1.66515e+00
       O -1.64598e+01 -6.81775e+00 -1.59599e-02
       H -1.73199e+01 -7.06438e+00 -3.75000e-01
       H -1.59679e+01 -7.48928e+00 -5.89922e-01
       O -4.02431e+00 -1.35571e+01 -2.31520e+01
       H -4.17959e+00 -1.36308e+01 -2.22343e+01
       H -4.20411e+00 -1.25923e+01 -2.33703e+01
       O -1.17421e+00 -1.81153e+01 -1.64877e+01
       H -9.27225e-01 -1.85949e+01 -1.56972e+01
       H -2.05058e+00 -1.85626e+01 -1.66355e+01
       O -2.47187e+00  2.51961e+01  4.95082e+00
       H -1.68174e+00  2.56303e+01  4.90269e+00
       H -2.26882e+00  2.43429e+01  4.55744e+00
       O -1.10393e+01 -6.97395e+00 -3.00593e+01
       H -1.13501e+01 -7.08232e+00 -3.10227e+01
       H -1.00811e+01 -6.91275e+00 -3.02293e+01
       O -5.54451e+00  2.45550e+01  9.72367e+00
       H -5.37722e+00  2.38315e+01  9.07205e+00
       H -5.93550e+00  2.51405e+01  9.05089e+00
       O -9.72281e+00 -1.04746e+01 -9.78774e+00
       H -8.99108e+00 -1.06118e+01 -1.04680e+01
       H -9.99637e+00 -1.13661e+01 -9.67078e+00
       O  7.05083e+00 -1.49955e+01 -3.47631e+00
       H  6.76096e+00 -1.58479e+01 -3.13411e+00
       H  6.17655e+00 -1.46470e+01 -3.81040e+00
       O -1.01643e+01 -7.73750e+00  7.35453e+00
       H -9.81345e+00 -7.47268e+00  6.51801e+00
       H -9.71478e+00 -8.54485e+00  7.40133e+00
       O -1.51551e+01 -3.23269e+00  1.29014e+01
       H -1.45767e+01 -4.03056e+00  1.30392e+01
       H -1.48062e+01 -2.83577e+00  1.20430e+01
       O -2.62844e+01 -1.41264e+01 -1.04236e+01
       H -2.54453e+01 -1.46181e+01 -1.05713e+01
       H -2.65974e+01 -1.43747e+01 -9.54558e+00
       O  2.64989e+00 -1.28525e+01 -9.29042e+00
       H  2.91767e+00 -1.37133e+01 -9.61429e+00
       H  3.54511e+00 -1.24548e+01 -9.13319e+00
       O -1.86629e+01 -2.22220e+01 -1.49462e+01
       H -1.92978e+01 -2.20729e+01 -1.41348e+01
       H -1.79466e+01 -2.26492e+01 -1.44795e+01
       O -3.67519e+01 -2.67721e+01  2.61169e+01
       H -3.74906e+01 -2.67833e+01  2.67906e+01
       H -3.71310e+01 -2.61298e+01  2.54702e+01
       O  1.91094e+01  2.35518e+01  2.91815e+01
       H  1.98076e+01  2.30194e+01  2.95872e+01
       H  1.95165e+01  2.34354e+01  2.83013e+01
       O -5.34325e+00 -1.44022e+01 -1.33840e+01
       H -5.67612e+00 -1.39441e+01 -1.41180e+01
       H -5.33282e+00 -1.38001e+01 -1.26734e+01
       O -1.23991e+01 -9.57815e+00 -1.05249e+01
       H -1.26305e+01 -8.95914e+00 -9.77210e+00
       H -1.14262e+01 -9.50955e+00 -1.03785e+01
       O -2.04562e+01 -2.44800e+00  4.42832e+00
       H -2.01030e+01 -1.85153e+00  3.67310e+00
       H -2.12954e+01 -2.06851e+00  4.60417e+00
       O -1.11314e+01 -1.65879e+01 -2.54672e+01
       H -1.02582e+01 -1.66070e+01 -2.52603e+01
       H -1.12055e+01 -1.59207e+01 -2.61811e+01
       O -2.06770e+01 -1.69401e+01 -2.28802e+01
       H -2.02712e+01 -1.67221e+01 -2.20657e+01
       H -2.06344e+01 -1.61486e+01 -2.34649e+01
       O -5.90864e+00 -9.64401e+00 -1.66170e+01
       H -5.46735e+00 -8.77419e+00 -1.68248e+01
       H -6.79717e+00 -9.54174e+00 -1.69685e+01
       O -1.59405e+01 -1.33047e+01 -2.07820e+01
       H -1.67564e+01 -1.26784e+01 -2.08745e+01
       H -1.52327e+01 -1.26979e+01 -2.10961e+01
       O -1.20652e+01 -2.22513e+01 -1.44027e+01
       H -1.21825e+01 -2.26128e+01 -1.53382e+01
       H -1.22750e+01 -2.13731e+01 -1.46309e+01
       O -1.72769e+01 -9.73848e+00 -5.26806e+00
       H -1.77320e+01 -9.81038e+00 -4.39979e+00
       H -1.67097e+01 -1.05564e+01 -5.25326e+00
       O -1.24290e+01 -1.76541e+01 -9.26984e+00
       H -1.15196e+01 -1.81088e+01 -9.60975e+00
       H -1.27860e+01 -1.73396e+01 -1.01569e+01
       O  2.00501e+01 -1.41347e+01 -1.28114e+01
       H  1.98550e+01 -1.50819e+01 -1.25763e+01
       H  2.05566e+01 -1.39486e+01 -1.19318e+01
       O -9.33024e+00 -2.45050e+01 -2.51051e+00
       H -1.00535e+01 -2.39861e+01 -2.14924e+00
       H -9.81072e+00 -2.53042e+01 -2.81313e+00
       O -1.73165e+01 -2.51121e+01  7.93742e+00
       H -1.79980e+01 -2.44516e+01  8.16374e+00
       H -1.70972e+01 -2.55490e+01  8.77260e+00
       O -1.56306e+01 -9.03849e+00 -7.80402e+00
       H -1.60584e+01 -9.92650e+00 -7.69946e+00
       H -1.64426e+01 -8.48987e+00 -7.54558e+00
       O -1.11367e+01  2.61825e+00 -1.49121e+01
       H -1.17849e+01  2.47864e+00 -1.56795e+01
       H -1.15242e+01  2.02834e+00 -1.42485e+01
       O  3.05617e+01 -1.30656e+01  4.80849e+00
       H  3.00164e+01 -1.22416e+01  4.65504e+00
       H  3.04475e+01 -1.33826e+01  3.91800e+00
       O  1.68490e+01 -1.80591e+01 -2.70124e+01
       H  1.68361e+01 -1.90387e+01 -2.71561e+01
       H  1.61156e+01 -1.77281e+01 -2.76159e+01
       O  1.94252e+00 -2.82347e+01 -2.94189e-01
       H  2.11414e+00 -2.88149e+01 -1.06681e+00
       H  1.39206e+00 -2.87820e+01  2.48050e-01
       O -2.65166e+01 -1.76530e+01 -2.46518e+01
       H -2.69735e+01 -1.76386e+01 -2.37739e+01
       H -2.67466e+01 -1.85729e+01 -2.48936e+01
       O  1.96509e+00 -1.54483e+01 -1.05626e+01
       H  1.54041e+00 -1.60028e+01 -1.11914e+01
       H  2.31642e+00 -1.61606e+01 -9.94565e+00
       O  1.60398e+00 -1.02274e+01 -8.98390e+00
       H  7.62818e-01 -1.05865e+01 -8.67303e+00
       H  2.06385e+00 -1.10850e+01 -9.12191e+00
       O -9.86509e+00 -3.72829e+00 -7.22691e+00
       H -9.59150e+00 -2.99693e+00 -7.82865e+00
       H -9.09631e+00 -4.37181e+00 -7.42493e+00
       O -1.42752e+01  1.31706e+01 -1.23517e+01
       H -1.51122e+01  1.32481e+01 -1.28120e+01
       H -1.44934e+01  1.33375e+01 -1.14448e+01
       O -1.31507e+00 -1.07977e+01 -2.65999e+01
       H -7.66017e-01 -1.00887e+01 -2.61382e+01
       H -6.91565e-01 -1.15073e+01 -2.66093e+01
       O -2.25021e+01 -1.30901e+01  2.56025e+01
       H -2.24344e+01 -1.40682e+01  2.54923e+01
       H -2.34279e+01 -1.29500e+01  2.53633e+01
       O  2.23885e+01 -1.40353e+01  4.12939e+01
       H  2.16117e+01 -1.34030e+01  4.11250e+01
       H  2.18441e+01 -1.48530e+01  4.14176e+01
       O -1.12494e+01 -9.49719e+00 -1.89259e+01
       H -1.09919e+01 -8.81256e+00 -1.82413e+01
       H -1.22096e+01 -9.39428e+00 -1.88897e+01
       O -1.45300e+01 -1.46779e+01 -1.88862e+01
       H -1.49165e+01 -1.55436e+01 -1.89929e+01
       H -1.51512e+01 -1.41804e+01 -1.95064e+01
       O -2.03055e+01 -8.95795e+00  2.88308e+01
       H -2.04646e+01 -9.83356e+00  2.84305e+01
       H -1.95605e+01 -9.17008e+00  2.94493e+01
       O -1.10433e+01 -1.26889e+01 -2.05247e+01
       H -1.06772e+01 -1.19226e+01 -2.10964e+01
       H -1.11141e+01 -1.22444e+01 -1.96603e+01
       O -7.70422e+00 -1.68074e+01 -1.88891e+01
       H -7.23426e+00 -1.62761e+01 -1.82630e+01
       H -8.63262e+00 -1.68870e+01 -1.85982e+01
       O -1.07501e+01  2.15789e+01 -7.92373e+00
       H -1.15225e+01  2.20623e+01 -8.17637e+00
       H -1.00114e+01  2.21405e+01 -8.19368e+00
       O -1.04039e+01  1.89704e+00 -1.06820e+01
       H -1.10606e+01  2.42485e+00 -1.01224e+01
       H -1.06628e+01  1.03135e+00 -1.03270e+01
       O -9.41849e+00 -1.03665e+01  2.69128e+00
       H -9.77164e+00 -9.97543e+00  1.85735e+00
       H -9.68020e+00 -1.13162e+01  2.65744e+00
       O -2.62543e+00 -1.72997e+01 -3.03945e+01
       H -2.32166e+00 -1.74748e+01 -2.95032e+01
       H -3.61177e+00 -1.75660e+01 -3.02316e+01
       O  1.53755e+01 -3.91989e+00 -1.19848e+01
       H  1.58318e+01 -4.80512e+00 -1.18178e+01
       H  1.44372e+01 -4.11307e+00 -1.19054e+01
       O -1.52762e+01 -8.12832e+00  1.84972e+01
       H -1.57191e+01 -8.98009e+00  1.84756e+01
       H -1.45282e+01 -8.34161e+00  1.91077e+01
       O  2.60459e+01 -1.78286e+01  1.59775e+01
       H  2.64606e+01 -1.70717e+01  1.55912e+01
       H  2.53039e+01 -1.78728e+01  1.53879e+01
       O -2.59403e+01 -9.32803e+00  1.63185e+01
       H -2.65582e+01 -8.52384e+00  1.62478e+01
       H -2.51204e+01 -9.02527e+00  1.58808e+01
       O -1.70220e+01  2.79078e+01 -1.33083e+01
       H -1.76967e+01  2.81309e+01 -1.26886e+01
       H -1.74289e+01  2.71006e+01 -1.35237e+01
       O -1.64937e+01 -9.27287e+00  1.52867e+01
       H -1.67502e+01 -9.35289e+00  1.43597e+01
       H -1.65712e+01 -8.28560e+00  1.53282e+01
       O  2.38340e+01 -2.63828e+01  1.28377e+01
       H  2.40009e+01 -2.54243e+01  1.30273e+01
       H  2.41461e+01 -2.64571e+01  1.19549e+01
       O  8.39921e+00 -2.58297e+01 -1.09751e+01
       H  7.98380e+00 -2.54095e+01 -1.16755e+01
       H  7.76425e+00 -2.64728e+01 -1.06116e+01
       O -9.75765e+00 -1.96215e+01 -4.38619e+00
       H -1.01539e+01 -1.95521e+01 -3.49252e+00
       H -9.18219e+00 -2.04010e+01 -4.34507e+00
       O  1.21898e+01 -1.90076e+01 -5.94982e+00
       H  1.13932e+01 -1.91748e+01 -5.40370e+00
       H  1.23548e+01 -1.80992e+01 -5.77793e+00
       O -1.09498e+01  1.61283e+01 -2.25709e+01
       H -1.06169e+01  1.52836e+01  2.53656e+01
       H -1.10632e+01  1.68936e+01  2.54852e+01
       O  1.61401e+01 -1.95748e+01  1.68588e+01
       H  1.71355e+01 -1.94686e+01 -3.04703e+01
       H  1.59623e+01 -1.88408e+01 -3.12819e+01
       O  3.57779e+00  1.38780e+01  3.46675e+00
       H  3.53362e+00  1.48369e+01  3.30439e+00
       H  4.24737e+00  1.37076e+01  2.77775e+00
       O -1.17567e+01  2.57154e+01  1.55264e+01
       H -1.14868e+01  2.49848e+01  1.49636e+01
       H -1.14483e+01  2.54501e+01  1.64391e+01
       O  2.04921e+01 -6.52847e+00  4.12235e+01
       H  2.03854e+01 -7.32363e+00  4.18101e+01
       H  2.13931e+01 -6.07276e+00  4.13033e+01
       O  1.39439e+01 -1.65984e+01 -1.77852e+01
       H  1.34672e+01 -1.63884e+01 -1.86443e+01
       H  1.31161e+01 -1.69036e+01 -1.73368e+01
       O -2.00963e+00 -1.64244e+01 -2.00293e+01
       H -1.71856e+00 -1.63683e+01 -2.09577e+01
       H -1.46928e+00 -1.57116e+01 -1.95522e+01
       O -1.36858e+01 -2.17340e+01 -5.77940e+00
       H -1.29083e+01  2.51495e+01 -5.96614e+00
       H -1.32965e+01 -2.08862e+01 -5.87261e+00
       O  3.48652e+01  6.28441e-01  2.58132e+01
       H  3.48316e+01 -3.30958e-01  2.58210e+01
       H  3.46762e+01  8.78510e-01  2.68022e+01
       O -2.41743e+01  7.02008e+00 -5.21534e+00
       H -2.40044e+01  7.95799e+00 -4.89758e+00
       H -2.37899e+01  6.46116e+00 -4.55009e+00
       O  1.99436e+01 -5.57592e+00 -1.16006e+01
       H  1.99309e+01 -4.66510e+00 -1.13219e+01
       H  2.08621e+01 -5.60724e+00 -1.18786e+01
       O -9.43729e+00 -1.89123e+01  2.42317e+01
       H -8.98537e+00 -1.80659e+01  2.43099e+01
       H -9.47232e+00 -1.90909e+01  2.51908e+01
       O -1.26571e+01 -7.82016e+00 -1.13443e+00
       H -1.35861e+01 -7.66760e+00 -1.11273e+00
       H -1.23937e+01 -7.09046e+00 -1.75097e+00
       O  2.99171e+00 -2.06091e+01 -1.43779e+01
       H  3.65947e+00 -2.11451e+01 -1.38128e+01
       H  2.23848e+00 -2.04857e+01 -1.37637e+01
       O -1.85974e+01 -7.79774e+00 -9.73772e+00
       H -1.89863e+01 -8.34215e+00 -1.04199e+01
       H -1.85924e+01 -8.41259e+00 -8.95336e+00
       O -2.06800e+01 -2.39262e+01  1.80452e+01
       H -2.11226e+01 -2.33664e+01  1.87165e+01
       H -1.99796e+01 -2.44266e+01  1.84879e+01
       O  5.45439e+00 -3.38518e+01  1.52270e+00
       H  5.57623e+00 -3.35468e+01  6.00061e-01
       H  5.84180e+00 -3.31299e+01  1.95894e+00
       O -9.86212e+00 -1.69852e+01  1.83385e+01
       H -1.06758e+01 -1.67189e+01  1.77936e+01
       H -9.54676e+00 -1.60341e+01  1.84693e+01
       O  1.46577e+00 -1.17337e+00 -7.89210e+00
       H  6.87722e-01 -1.20730e+00 -8.56429e+00
       H  2.07331e+00 -7.60067e-01 -8.56406e+00
       O -1.47419e+01 -1.03281e+01 -1.56160e+01
       H -1.50158e+01 -1.06244e+01 -1.47091e+01
       H -1.50367e+01 -9.41783e+00 -1.55955e+01
       O  1.88896e+01 -2.13122e+01 -1.69361e+01
       H  1.85940e+01 -2.22113e+01 -1.73216e+01
       H  1.93973e+01 -2.09797e+01 -1.77031e+01
       O -1.24727e+01 -2.08840e+01 -9.84109e+00
       H -1.18352e+01 -2.06124e+01 -9.15203e+00
       H -1.19401e+01 -2.08910e+01 -1.06103e+01
       O -1.33737e+01 -1.39498e+01 -1.48625e+01
       H -1.29277e+01 -1.47339e+01 -1.52842e+01
       H -1.28485e+01 -1.33112e+01 -1.53656e+01
       O  3.69818e+00 -2.66980e+01 -2.74954e+01
       H  4.64583e+00 -2.65366e+01 -2.74431e+01
       H  3.33389e+00 -2.59073e+01 -2.71489e+01
       O  1.31132e+01 -2.68684e+01 -1.77643e+01
       H  1.34630e+01 -2.77350e+01 -1.79884e+01
       H  1.37456e+01 -2.61970e+01 -1.81060e+01
       O  1.37363e+01  2.07216e+01  1.19656e+01
       H  1.41133e+01  2.01931e+01  1.26411e+01
       H  1.30173e+01  2.11568e+01  1.25092e+01
       O -1.03922e+01 -4.54052e+00 -1.02105e+01
       H -9.61871e+00 -4.74332e+00 -1.07798e+01
       H -1.11745e+01 -4.86920e+00 -1.07524e+01
       O  7.08128e-01 -3.41120e+01 -2.81664e+00
       H -3.71051e-02  1.28334e+01 -2.73523e+00
       H  1.30921e+00 -3.43812e+01 -2.08787e+00
       O -5.21164e+00 -8.54925e+00 -2.47046e+01
       H -6.02517e+00 -8.38901e+00 -2.52660e+01
       H -4.52656e+00 -8.16160e+00 -2.53000e+01
       O -2.09313e+01 -4.03133e+01  8.60876e+00
       H -2.16689e+01 -4.01433e+01  9.27648e+00
       H -2.03400e+01 -3.95440e+01  8.73973e+00
       O -5.97276e-02  8.61822e+00 -5.28044e+00
       H -2.60237e-01  7.69549e+00 -4.98812e+00
       H -6.78143e-01  8.64954e+00 -6.07846e+00
       O -2.25199e+01 -5.82637e+00 -4.72644e+00
       H -2.14910e+01 -5.83918e+00 -4.84303e+00
       H -2.26738e+01 -4.93463e+00 -4.41108e+00
       O  2.84408e+01 -1.67090e+01  1.49652e+01
       H  2.89885e+01 -1.69561e+01  1.57548e+01
       H  2.91431e+01 -1.63011e+01  1.44988e+01
       O -9.86903e+00 -1.85843e+01 -1.78399e+00
       H -1.01826e+01 -1.88294e+01 -8.75126e-01
       H -8.98267e+00 -1.88385e+01 -1.56380e+00
       O  1.24908e+01 -1.61354e+01 -9.50607e+00
       H  1.26582e+01 -1.62665e+01 -8.59924e+00
       H  1.24009e+01  3.22856e+01 -9.66983e+00
       O -1.57229e+01  2.13512e+01  5.17541e+00
       H -1.62891e+01  2.10126e+01  5.88583e+00
       H -1.56551e+01  2.05993e+01  4.58389e+00
       O -2.87460e+00 -9.05291e+00 -2.80728e+01
       H -3.03953e+00 -8.36466e+00 -2.74121e+01
       H -2.37754e+00 -9.72440e+00 -2.75328e+01
       O  2.47128e+01 -1.28112e+01  2.94683e+01
       H  2.46851e+01 -1.34100e+01  3.02624e+01
       H  2.39431e+01 -1.31465e+01  2.89861e+01
       O  1.07245e+01  9.49113e-01 -1.06425e+00
       H  1.06706e+01  1.15627e+00 -7.85292e-02
       H  9.72084e+00  8.01380e-01 -1.22813e+00
       O  1.12456e+01 -1.11130e+01 -2.56631e+01
       H  1.14473e+01 -1.01334e+01 -2.57284e+01
       H  1.04275e+01 -1.11910e+01 -2.51415e+01
       O -8.98976e+00  2.34028e+01 -6.09230e+00
       H -8.76506e+00  2.26317e+01 -5.54031e+00
       H -8.13797e+00  2.34704e+01 -6.57791e+00
       O -5.47503e+00 -1.52609e+01 -2.47996e+01
       H -4.74121e+00 -1.50227e+01 -2.41789e+01
       H -5.93314e+00 -1.44053e+01 -2.49918e+01
       O  2.55767e+00 -1.86680e+00 -1.44158e+01
       H  1.58150e+00 -2.01084e+00 -1.44042e+01
       H  2.79219e+00 -2.82603e+00 -1.42426e+01
       O -3.17228e+00 -7.03096e+00  1.24713e+01
       H -3.04015e+00 -7.72242e+00  1.31638e+01
       H -2.27232e+00 -6.80447e+00  1.21574e+01
       O -9.15976e+00 -2.16579e+01 -2.64388e+01
       H -8.84922e+00 -2.21711e+01 -2.71883e+01
       H -8.50581e+00 -2.18914e+01 -2.57781e+01
       O  9.51892e+00 -1.88677e+00 -3.10573e+01
       H  8.74464e+00 -1.32075e+00 -3.07927e+01
       H  9.89105e+00 -1.84377e+00 -3.02368e+01
       O -1.04933e+01 -1.19990e+01  2.27244e+01
       H -1.10164e+01 -1.27262e+01  2.29928e+01
       H -1.05462e+01 -1.15169e+01  2.36273e+01
       O -1.18062e+01 -1.94130e+01 -6.15411e+00
       H -1.15697e+01 -1.97850e+01 -6.94076e+00
       H -1.09950e+01 -1.93824e+01 -5.52691e+00
       O -1.73025e+01 -9.27421e+00  2.55099e+01
       H -1.75340e+01 -1.00790e+01  2.60348e+01
       H -1.72222e+01 -9.79616e+00  2.46347e+01
       O  1.03593e+01 -8.79677e+00 -1.26983e+01
       H  1.12239e+01 -9.25353e+00 -1.30148e+01
       H  1.02416e+01 -9.13366e+00 -1.17908e+01
       O -6.08113e+00  7.76054e+00 -1.00339e+01
       H -5.99070e+00  8.41968e+00 -9.31113e+00
       H -6.70455e+00  7.16998e+00 -9.55695e+00
       O -3.90703e+00 -3.43361e+00 -3.12121e+01
       H -4.02401e+00 -3.37910e+00 -3.02113e+01
       H -4.65171e+00 -4.04674e+00 -3.13040e+01
       O -3.07221e+00 -1.27067e+01 -8.34829e+00
       H -3.82698e+00 -1.28990e+01 -7.74840e+00
       H -3.37491e+00 -1.24865e+01 -9.26528e+00
       O -3.79559e+00 -1.10065e+01 -2.98216e+01
       H -3.17433e+00 -1.10704e+01 -3.05579e+01
       H -3.56568e+00 -1.01676e+01 -2.93538e+01
       O -2.42674e+00 -5.32699e+00 -1.72235e+01
       H -1.60360e+00 -5.67078e+00 -1.76131e+01
       H -2.03986e+00 -5.19543e+00 -1.63430e+01
       O -6.28973e+00  2.56676e+01 -1.18400e+01
       H -6.62302e+00  2.64867e+01 -1.15314e+01
       H -5.83771e+00  2.58598e+01 -1.26335e+01
       O -4.95010e+00 -2.02650e+01 -8.22384e+00
       H -5.43263e+00 -2.09448e+01 -8.67358e+00
       H -4.24301e+00 -2.07621e+01 -7.72060e+00
       O -1.65488e+00  8.66564e+00 -7.47054e+00
       H -2.00133e+00  9.58010e+00 -7.43390e+00
       H -2.41226e+00  8.31546e+00 -6.90616e+00
       O -5.99418e+00 -1.95066e+01 -2.83869e+01
       H -6.90262e+00 -1.92432e+01 -2.82035e+01
       H -5.75156e+00 -1.96823e+01 -2.74463e+01
       O -2.70658e+01 -1.46480e+01 -1.80982e+01
       H -2.78028e+01 -1.47129e+01 -1.87336e+01
       H -2.75294e+01 -1.41560e+01 -1.74067e+01
       O -2.02222e+01 -1.85052e+01 -1.89734e+01
       H -1.97850e+01 -1.80070e+01 -1.96999e+01
       H -1.97982e+01 -1.83559e+01 -1.81531e+01
       O  9.72900e+00  2.61400e+01 -1.09098e+01
       H  9.09373e+00  2.67905e+01 -1.11932e+01
       H  1.03284e+01  2.59910e+01 -1.16678e+01
       O -1.23317e+01  1.79131e+01 -1.50378e+01
       H -1.22646e+01  1.74072e+01 -1.41796e+01
       H -1.16435e+01  1.85235e+01 -1.50849e+01
       O  2.02949e+01 -2.61295e+01  1.19141e+01
       H  2.06402e+01 -2.62418e+01  1.10297e+01
       H  1.93863e+01 -2.63459e+01  1.18546e+01
       O -3.62709e+00 -7.00164e+00 -2.63102e+01
       H -2.76261e+00 -6.67534e+00 -2.60324e+01
       H -4.25745e+00 -6.28224e+00 -2.60801e+01
       O  1.52403e+01  2.98366e+01 -4.47484e+00
       H  1.55794e+01  2.99687e+01 -5.42953e+00
       H  1.58603e+01  3.02203e+01 -3.86837e+00
       O -2.26533e+01 -1.14967e+01 -8.16382e+00
       H -2.19633e+01 -1.11268e+01 -7.61232e+00
       H -2.34485e+01 -1.09901e+01 -7.94547e+00
       O -2.52351e+01  1.51273e+00 -1.00711e+01
       H -2.54801e+01  2.41918e+00 -1.03575e+01
       H -2.57723e+01  9.92197e-01 -1.06887e+01
       O -9.13765e+00 -7.77491e+00 -1.21704e+01
       H -9.49270e+00 -6.91271e+00 -1.20325e+01
       H -8.33877e+00 -7.70737e+00 -1.16714e+01
       O -8.80395e+00  1.08454e+01  1.93148e+01
       H -8.78771e+00  9.92177e+00  1.95284e+01
       H -9.53258e+00  1.11564e+01  1.98237e+01
       O  1.10884e+00  2.15296e+01 -5.08584e+00
       H  1.60870e+00 -2.61007e+01 -4.28832e+00
       H  1.41400e+00  2.06547e+01 -5.52573e+00
       O -2.11163e+01 -1.90320e+01 -9.09108e+00
       H -2.01462e+01 -1.88663e+01 -9.07844e+00
       H -2.11901e+01 -1.99516e+01 -8.70611e+00
       O -1.89852e+01  2.06967e+01 -8.83732e+00
       H -1.87676e+01  2.16070e+01 -9.17279e+00
       H -1.87528e+01  2.02494e+01 -9.60145e+00
       O -1.29167e+01 -1.35829e+01 -9.63509e+00
       H -1.38894e+01 -1.37308e+01 -9.73486e+00
       H -1.26732e+01 -1.37091e+01 -1.05643e+01
       O -4.44920e-01 -2.30140e+00 -1.65697e+01
       H -2.74481e-01 -2.54004e+00 -1.55914e+01
       H  2.92653e-01 -2.67386e+00 -1.70274e+01
       O -6.54507e+00 -1.13158e+01 -2.86453e+01
       H -5.88478e+00 -1.12782e+01 -2.93460e+01
       H -7.20695e+00 -1.07944e+01 -2.90020e+01
       O -4.28674e+00 -2.40438e+01 -1.52964e+01
       H -3.59143e+00 -2.37533e+01 -1.59406e+01
       H -4.87441e+00 -2.44423e+01 -1.59240e+01
       O  2.00058e+01 -1.31016e+01 -6.79639e+00
       H  1.98257e+01 -1.26439e+01 -7.62497e+00
       H  1.92680e+01 -1.37509e+01 -6.88647e+00
       O -1.12335e+01 -1.04999e+01 -2.26856e+01
       H -1.22383e+01 -1.03659e+01 -2.25930e+01
       H -1.09209e+01 -9.60529e+00 -2.26413e+01
       O -2.72082e+01 -1.03234e+01 -1.94142e+01
       H -2.67586e+01 -1.04321e+01 -2.03082e+01
       H -2.79839e+01 -1.08482e+01 -1.95170e+01
       O  3.82085e-02 -8.48477e+00  1.00720e-01
       H -2.41198e-01 -9.24657e+00  5.93244e-01