4
# CELL(abcABC): 1000.00000  1000.00000  1000.00000    90.00000    90.00000    90.00000  Step:         406  Bead:       0 positions{angstrom}  cell{angstrom}
       O -3.14800e+00  1.06980e+00  3.41729e-01
       H -3.35478e+00  2.51092e-01  7.32603e-01
       H -2.70689e+00  1.55883e+00  1.01795e+00
       H -3.35489e+00  1.27920e+00 -4.89299e-01
