4
# CELL(abcABC): 1000.00000  1000.00000  1000.00000    90.00000    90.00000    90.00000  Step:         701  Bead:       0 positions{angstrom}  cell{angstrom}
       O -3.15242e+00  1.06600e+00  3.56712e-01
       H -3.56073e+00  2.80929e-01  7.09402e-01
       H -3.18912e+00  1.15072e+00 -6.10259e-01
       H -2.59659e+00  1.71822e+00  9.24308e-01
