11135
# CELL(abcABC):   47.46614    47.46614    47.46614    90.00000    90.00000    90.00000  Step:        3150  Bead:       0 positions{angstrom}  cell{angstrom}
       C -9.41403e+00 -1.41593e+00 -4.12162e+00
       H -1.02157e+01 -1.46376e+00 -3.33156e+00
       H -9.24048e+00 -2.54028e+00 -4.30988e+00
       H -9.81101e+00 -1.06933e+00 -5.10954e+00
       C -8.16860e+00 -6.36012e-01 -3.88185e+00
       O -7.59991e+00 -4.74750e-02 -4.76199e+00
       N -7.76784e+00 -5.92647e-01 -2.56759e+00
       H -8.23787e+00 -1.27762e+00 -2.03482e+00
       C -6.55481e+00  1.42238e-02 -2.06277e+00
       H -5.79908e+00  1.75976e-01 -2.84689e+00
       C -6.80477e+00  1.41793e+00 -1.65197e+00
       H -5.83007e+00  1.80863e+00 -1.20584e+00
       H -7.55647e+00  1.55804e+00 -8.50783e-01
       C -7.19059e+00  2.30845e+00 -2.82757e+00
       H -8.26473e+00  2.15241e+00 -3.08662e+00
       H -6.57098e+00  2.03944e+00 -3.65848e+00
       C -7.03900e+00  3.74566e+00 -2.46175e+00
       H -5.92424e+00  3.92640e+00 -2.44740e+00
       H -7.47854e+00  3.97304e+00 -1.48200e+00
       C -7.71145e+00  4.69076e+00 -3.47139e+00
       H -7.31006e+00  5.73431e+00 -3.20833e+00
       H -8.82643e+00  4.67975e+00 -3.38089e+00
       N -7.39213e+00  4.47786e+00 -4.90223e+00
       H -6.38455e+00  4.16123e+00 -5.03083e+00
       H -7.55947e+00  5.34945e+00 -5.58599e+00
       H -7.96398e+00  3.72784e+00 -5.26363e+00
       C -5.87367e+00 -8.69613e-01 -1.00864e+00
       O -5.77586e+00 -4.75415e-01  2.12162e-01
       N -5.19520e+00 -1.96838e+00 -1.43054e+00
       H -5.05395e+00 -2.21051e+00 -2.40643e+00
       H -4.83419e+00 -2.55370e+00 -6.95193e-01
       O -1.31561e+01 -1.33389e+01 -2.40755e+01
       H -1.29124e+01 -1.39889e+01 -2.34049e+01
       H -1.33929e+01 -1.38667e+01 -2.48407e+01
       O -2.18990e+01 -3.37545e+00 -8.15221e+00
       H -2.10656e+01 -2.91728e+00 -8.09986e+00
       H -2.17039e+01 -4.35838e+00 -8.17406e+00
       O  1.10760e+01 -1.71658e+01 -2.15075e+00
       H  1.12356e+01 -1.67769e+01 -1.25432e+00
       H  1.20191e+01 -1.69554e+01 -2.45511e+00
       O -2.66200e+01 -1.51292e+01 -2.59601e+01
       H -2.75775e+01 -1.53599e+01 -2.58160e+01
       H -2.67311e+01 -1.44502e+01 -2.67175e+01
       O -8.57489e+00 -1.53830e+01 -2.11214e+01
       H -8.60349e+00 -1.61626e+01 -2.04585e+01
       H -7.70420e+00 -1.49210e+01 -2.09554e+01
       O  2.33349e+01 -2.25170e+01  1.90590e+01
       H  2.37082e+01 -2.16309e+01  1.86415e+01
       H  2.40137e+01 -2.32106e+01  1.87888e+01
       O -2.05449e+01 -1.22041e+01 -4.97719e+00
       H -2.03177e+01 -1.16998e+01 -4.18738e+00
       H -2.14955e+01 -1.20323e+01 -5.11327e+00
       O  2.13588e+01 -2.52660e+01 -1.05219e+01
       H  2.08939e+01 -2.52654e+01 -9.66800e+00
       H  2.06512e+01 -2.50953e+01 -1.11863e+01
       O -1.32975e+01 -1.66049e+01 -7.20783e+00
       H -1.40234e+01 -1.62905e+01 -7.76019e+00
       H -1.25217e+01 -1.61927e+01 -7.73422e+00
       O  1.36783e+01 -1.88401e+01 -9.21717e+00
       H  1.33757e+01 -1.79916e+01 -9.50594e+00
       H  1.29125e+01 -1.93822e+01 -9.08927e+00
       O -3.06456e+01 -1.28088e+01 -2.67109e+00
       H -3.02368e+01 -1.35442e+01 -3.13171e+00
       H -3.09674e+01 -1.22586e+01 -3.38134e+00
       O  1.10917e+01 -3.10630e+01 -1.04781e+01
       H  1.03714e+01 -3.08012e+01 -9.81563e+00
       H  1.05907e+01 -3.09744e+01 -1.12897e+01
       O  1.64987e+01  2.37033e+01 -1.25734e+01
       H  1.69269e+01  2.37810e+01 -1.16407e+01
       H  1.62177e+01  2.27752e+01 -1.25495e+01
       O -3.74867e+01 -9.00063e+00 -6.10978e+00
       H -3.67143e+01 -9.58063e+00 -6.12443e+00
       H -3.71100e+01 -8.27187e+00 -5.66706e+00
       O -4.46123e+00 -2.24340e+01 -2.64129e+01
       H -3.65842e+00 -2.29560e+01 -2.65343e+01
       H -4.68918e+00 -2.28038e+01 -2.55031e+01
       O -1.36136e+00 -9.38482e+00 -8.33238e+00
       H -2.17421e+00 -9.75242e+00 -7.94821e+00
       H -1.38173e+00 -9.92813e+00 -9.11888e+00
       O -7.85669e+00 -1.22292e+01  3.22129e+00
       H -8.19871e+00 -1.30628e+01  2.87921e+00
       H -7.70878e+00 -1.25087e+01  4.13578e+00
       O  3.45408e-01 -1.47418e+01 -2.54910e+01
       H  1.13862e+00 -1.53129e+01 -2.54651e+01
       H -4.18501e-01 -1.53230e+01 -2.53387e+01
       O  2.79298e-01 -1.67236e+01 -1.43666e+01
       H -5.97856e-01 -1.63975e+01 -1.40947e+01
       H  6.45640e-02 -1.74410e+01 -1.49112e+01
       O -1.57277e+01  1.98300e+01  3.45007e+00
       H -1.50325e+01  1.92587e+01  2.94223e+00
       H -1.52455e+01  1.99092e+01  4.25412e+00
       O -2.76480e+01  5.28828e-01 -9.36836e+00
       H -2.77943e+01  9.16417e-01 -1.02457e+01
       H -2.80652e+01 -3.52670e-01 -9.56230e+00
       O -2.24043e+01 -1.31907e+01 -9.00255e+00
       H -2.27804e+01 -1.36313e+01 -8.23630e+00
       H -2.29484e+01 -1.34974e+01 -9.77141e+00
       O  2.10369e+01 -1.60273e+01 -2.16346e+01
       H  2.03539e+01 -1.61506e+01 -2.23895e+01
       H  2.06152e+01 -1.64958e+01 -2.09086e+01
       O -1.79899e+01 -1.49340e+01 -1.52697e+01
       H -1.87451e+01 -1.49807e+01 -1.46770e+01
       H -1.82164e+01 -1.41012e+01 -1.57388e+01
       O -4.69095e+00 -2.17333e+01 -1.54873e+01
       H -5.31338e+00 -2.21694e+01 -1.60692e+01
       H -4.23723e+00 -2.09904e+01 -1.59556e+01
       O -1.76196e+01 -1.92749e+01  2.35330e+01
       H -1.82398e+01 -1.98856e+01  2.31246e+01
       H -1.77070e+01 -1.94967e+01  2.44585e+01
       O -8.85288e+00 -3.61354e+01 -1.83046e+01
       H -9.67979e+00 -3.58343e+01 -1.86703e+01
       H -8.77101e+00 -3.57187e+01 -1.73686e+01
       O -4.88428e+00  9.61197e-01  2.17867e+01
       H -5.52324e+00  8.05845e-01  2.25525e+01
       H -5.42232e+00  9.26479e-01  2.10306e+01
       O -1.62781e+01  1.51366e+00 -9.75492e-01
       H -1.71600e+01  1.42469e+00 -6.99265e-01
       H -1.59389e+01  6.66940e-01 -5.50028e-01
       O -2.66907e+01 -9.00673e+00  1.94615e+01
       H -2.72556e+01 -8.31208e+00  1.91302e+01
       H -2.66968e+01 -8.88873e+00  2.03965e+01
       O -1.81357e+01 -1.38988e+01 -2.33529e+01
       H -1.87929e+01 -1.35661e+01 -2.27893e+01
       H -1.87181e+01 -1.40234e+01 -2.41092e+01
       O  7.19598e+00 -1.13946e+01 -2.29987e+01
       H  6.97402e+00 -1.06008e+01 -2.24966e+01
       H  7.34047e+00 -1.09929e+01 -2.39195e+01
       O  3.24156e+00 -8.63588e+00 -2.96534e+01
       H  3.88026e+00 -8.80209e+00 -3.03757e+01
       H  2.41621e+00 -8.64473e+00 -3.01613e+01
       O -9.57546e+00 -1.59758e+01  8.33374e+00
       H -9.35980e+00 -1.68360e+01  7.96267e+00
       H -9.50823e+00 -1.61070e+01  9.31276e+00
       O -1.67605e+01 -1.56105e+01 -1.14776e+01
       H -1.66319e+01 -1.47042e+01 -1.11880e+01
       H -1.74418e+01 -1.55054e+01 -1.20941e+01
       O -2.52181e+01 -2.06584e+01  1.71807e+01
       H -2.48178e+01 -2.03403e+01  1.63522e+01
       H -2.46501e+01 -2.01797e+01  1.78195e+01
       O -1.81736e+01 -2.75956e+01 -7.12960e+00
       H -1.74845e+01 -2.68960e+01 -7.24964e+00
       H -1.76282e+01 -2.82642e+01 -6.66549e+00
       O -1.12103e+01 -7.28311e+00 -3.63657e+01
       H -1.02039e+01 -7.43841e+00 -3.63894e+01
       H -1.14994e+01 -7.78362e+00 -3.71404e+01
       O -1.22515e+01  6.75933e+00 -1.25538e+01
       H -1.21757e+01  7.41777e+00 -1.17995e+01
       H -1.28617e+01  6.13192e+00 -1.21055e+01
       O -5.34252e+00 -3.25688e+01 -1.77100e+01
       H -6.32673e+00 -3.23228e+01 -1.77179e+01
       H -5.29587e+00 -3.28369e+01 -1.86588e+01
       O  1.86096e+01 -1.84796e+01 -1.20364e+01
       H  1.77214e+01 -1.88011e+01 -1.21411e+01
       H  1.89220e+01 -1.87505e+01 -1.29222e+01
       O -1.58899e+01 -6.65053e+00 -3.70079e+01
       H -1.64239e+01 -5.85421e+00  1.04258e+01
       H -1.54385e+01 -6.59298e+00 -3.78858e+01
       O  2.04159e+01 -2.43899e+01 -5.45428e+00
       H  1.98171e+01 -2.48143e+01 -6.06078e+00
       H  2.11751e+01 -2.50322e+01 -5.57915e+00
       O -1.97846e+01 -1.04916e+01 -1.60608e+01
       H -2.03315e+01 -1.06781e+01 -1.53303e+01
       H -2.02603e+01 -1.08921e+01 -1.69043e+01
       O -2.48509e+01 -1.87429e+01 -1.97572e+01
       H -2.46350e+01 -1.87199e+01 -1.88052e+01
       H -2.48705e+01 -1.96935e+01 -2.00094e+01
       O  9.29325e-02 -1.16148e+01  9.24905e+00
       H  2.62621e-02 -1.19996e+01  1.01203e+01
       H -1.59199e-01 -1.06793e+01  9.47183e+00
       O -1.84585e+01 -1.67474e+01  2.06631e+00
       H -1.88160e+01 -1.68623e+01  1.13983e+00
       H -1.84330e+01 -1.57896e+01  2.15614e+00
       O  1.63829e+00 -1.43231e+01 -1.42014e+01
       H  8.66520e-01 -1.49695e+01 -1.42554e+01
       H  1.27623e+00 -1.37732e+01 -1.49067e+01
       O  6.08158e+00 -6.67779e+00 -2.01424e+01
       H  6.49653e+00 -6.27463e+00 -2.09569e+01
       H  6.19515e+00 -5.96387e+00 -1.93946e+01
       O -1.94333e+01 -5.40083e+00 -2.30750e+01
       H -1.90424e+01 -4.74782e+00 -2.36767e+01
       H -2.04341e+01 -5.39128e+00 -2.32611e+01
       O -1.62444e+01 -1.26021e+01 -2.92752e+01
       H -1.60178e+01 -1.21538e+01 -3.00753e+01
       H -1.68939e+01 -1.31600e+01 -2.96848e+01
       O -1.31971e+01 -1.61491e+01 -2.35970e+01
       H -1.37603e+01 -1.61675e+01 -2.44242e+01
       H -1.24500e+01 -1.66406e+01 -2.38586e+01
       O -1.02250e+01 -1.63672e+01 -2.84402e+01
       H -9.98917e+00 -1.66553e+01 -2.94052e+01
       H -1.00003e+01 -1.54306e+01 -2.83787e+01
       O -1.48817e+01  1.18593e+00 -9.31731e+00
       H -1.45158e+01  1.77899e+00 -8.70839e+00
       H -1.44507e+01  1.41771e+00 -1.01772e+01
       O  6.42847e+00 -4.94338e+00 -2.27527e+01
       H  6.48327e+00 -5.57910e+00 -2.35110e+01
       H  5.49913e+00 -4.75942e+00 -2.28397e+01
       O -1.80858e+01 -8.54121e+00  3.84611e-01
       H -1.74449e+01 -9.18725e+00  4.41107e-01
       H -1.88850e+01 -9.02636e+00  4.77432e-01
       O -1.63257e+01 -6.41500e+00 -1.21769e-01
       H -1.69590e+01 -7.14550e+00 -3.19572e-02
       H -1.55480e+01 -6.91310e+00 -4.09151e-01
       O -2.76876e+00 -1.32762e+01 -2.53204e+01
       H -2.80337e+00 -1.40794e+01 -2.57845e+01
       H -3.73489e+00 -1.30255e+01 -2.53402e+01
       O -4.16592e-01 -1.89098e+01 -1.63047e+01
       H -1.15597e+00 -1.88791e+01 -1.69325e+01
       H -8.57297e-01 -1.91739e+01 -1.54830e+01
       O -8.79919e-01  2.88216e+01  9.70027e+00
       H -9.45771e-02  2.83201e+01  9.95425e+00
       H -6.72568e-01  2.96661e+01  1.02231e+01
       O -1.04542e+01 -8.75172e+00 -3.13997e+01
       H -9.53239e+00 -8.36983e+00 -3.14021e+01
       H -1.05405e+01 -9.15316e+00 -3.05244e+01
       O -5.88209e+00  2.34047e+01  9.15066e+00
       H -6.28486e+00  2.43035e+01  8.95671e+00
       H -6.31683e+00  2.32500e+01  1.00770e+01
       O -9.82017e+00 -7.51902e+00 -9.01554e+00
       H -9.31072e+00 -7.90250e+00 -8.31753e+00
       H -1.06516e+01 -7.47845e+00 -8.52185e+00
       O  1.22680e+01 -1.97548e+01 -2.75898e+00
       H  1.27023e+01 -1.93262e+01 -3.47685e+00
       H  1.15178e+01 -1.92093e+01 -2.52962e+00
       O -1.32803e+01 -4.60545e+00  3.35043e+00
       H -1.25536e+01 -5.15391e+00  3.66107e+00
       H -1.27211e+01 -3.81020e+00  3.42765e+00
       O -1.42733e+01 -2.27690e+00  1.50475e+01
       H -1.44353e+01 -3.10624e+00  1.45584e+01
       H -1.37424e+01 -1.83795e+00  1.43850e+01
       O -2.71133e+01 -1.13115e+01 -8.93448e+00
       H -2.68143e+01 -1.05335e+01 -8.40093e+00
       H -2.62747e+01 -1.17068e+01 -9.00709e+00
       O  2.19167e+00 -1.03634e+01 -1.24223e+01
       H  1.67090e+00 -1.08142e+01 -1.31102e+01
       H  2.41533e+00 -1.10128e+01 -1.18457e+01
       O -1.67000e+01 -2.43179e+01 -1.21458e+01
       H -1.67664e+01 -2.45589e+01 -1.31126e+01
       H -1.69200e+01 -2.33866e+01 -1.21219e+01
       O -4.13079e+01 -2.59680e+01  2.93755e+01
       H -4.21378e+01 -2.65174e+01  2.92898e+01
       H -4.10247e+01 -2.62093e+01  3.02445e+01
       O  2.12938e+01  1.97942e+01  2.79428e+01
       H  2.22033e+01  1.95907e+01  2.78976e+01
       H  2.12224e+01  2.03084e+01  2.71336e+01
       O -9.17213e+00 -1.28924e+01 -1.86828e+01
       H -8.31694e+00 -1.24571e+01 -1.84872e+01
       H -9.70354e+00 -1.22139e+01 -1.92112e+01
       O -1.38864e+01 -9.94196e+00 -7.81352e+00
       H -1.48744e+01 -1.00834e+01 -7.75047e+00
       H -1.38557e+01 -1.00021e+01 -8.79840e+00
       O -1.79939e+01  1.15644e+00  5.77306e+00
       H -1.74625e+01  5.29354e-01  6.27509e+00
       H -1.89061e+01  1.10598e+00  6.20273e+00
       O -1.07062e+01 -1.72932e+01 -2.46478e+01
       H -9.92139e+00 -1.75242e+01 -2.41344e+01
       H -1.10804e+01 -1.81341e+01 -2.49530e+01
       O -2.17097e+01 -1.92488e+01 -2.21453e+01
       H -2.18662e+01 -1.82811e+01 -2.21522e+01
       H -2.20777e+01 -1.96365e+01 -2.29434e+01
       O -2.10978e+00 -8.94169e+00 -2.08630e+01
       H -2.83145e+00 -9.56379e+00 -2.08534e+01
       H -2.31555e+00 -8.28778e+00 -2.01620e+01
       O -1.58053e+01 -1.62486e+01 -2.26065e+01
       H -1.59038e+01 -1.53284e+01 -2.24316e+01
       H -1.48566e+01 -1.61467e+01 -2.29037e+01
       O -9.33941e+00 -2.50975e+01 -2.00278e+01
       H -9.89652e+00 -2.44258e+01 -2.04119e+01
       H -9.84551e+00 -2.58525e+01 -2.00162e+01
       O -1.91344e+01 -1.43993e+01 -4.85754e+00
       H -1.95042e+01 -1.36298e+01 -5.35684e+00
       H -1.81830e+01 -1.44011e+01 -5.15152e+00
       O -7.90260e+00 -1.66818e+01 -1.07737e+01
       H -8.16063e+00 -1.75935e+01 -1.08294e+01
       H -8.32345e+00 -1.63103e+01 -1.15847e+01
       O  2.31982e+01 -1.16171e+01 -1.23845e+01
       H  2.34998e+01 -1.24533e+01 -1.27442e+01
       H  2.39832e+01 -1.10647e+01 -1.24560e+01
       O -1.21796e+01 -2.56597e+01 -1.99951e+00
       H -1.12980e+01 -2.52082e+01 -1.88527e+00
       H -1.23121e+01 -2.56518e+01 -2.96949e+00
       O -1.74916e+01 -2.48096e+01  6.12724e+00
       H -1.65820e+01 -2.45527e+01  5.97891e+00
       H -1.77111e+01 -2.44588e+01  6.93446e+00
       O -1.77458e+01 -7.57278e+00 -3.38888e+00
       H -1.83307e+01 -6.81103e+00 -3.15830e+00
       H -1.79103e+01 -7.77019e+00 -4.31955e+00
       O -9.32363e+00  4.19169e+00 -1.62417e+01
       H -8.42700e+00  4.37346e+00 -1.66119e+01
       H -9.31954e+00  4.94710e+00 -1.56304e+01
       O  3.51040e+01 -1.24729e+01  8.56873e+00
       H  3.48756e+01 -1.33138e+01  8.06058e+00
       H  3.46666e+01 -1.27969e+01  9.38512e+00
       O  1.81274e+01 -1.78765e+01 -2.60177e+01
       H  1.80153e+01 -1.79406e+01 -2.69780e+01
       H  1.86877e+01 -1.86394e+01 -2.58095e+01
       O  4.00417e+00 -2.87197e+01 -3.45290e+00
       H  4.31509e+00 -2.95488e+01 -3.80781e+00
       H  4.26585e+00 -2.82310e+01 -4.24871e+00
       O -2.61228e+01 -1.86984e+01 -2.33969e+01
       H -2.68185e+01 -1.80876e+01 -2.35207e+01
       H -2.65300e+01 -1.95484e+01 -2.32233e+01
       O  5.08363e-01 -1.69793e+01 -1.01780e+01
       H  1.77676e-01 -1.60691e+01 -1.01061e+01
       H  1.28246e+00 -1.68779e+01 -9.57233e+00
       O  1.48523e+00 -8.30856e+00 -9.98471e+00
       H  1.75143e+00 -8.94596e+00 -1.06180e+01
       H  2.38946e+00 -8.16839e+00 -9.51118e+00
       O -1.00791e+01 -6.14404e+00 -1.31116e+01
       H -9.35052e+00 -5.91886e+00 -1.36896e+01
       H -1.07522e+01 -5.64079e+00 -1.35161e+01
       O -1.44505e+01  1.39425e+01 -1.36129e+01
       H -1.52003e+01  1.44671e+01 -1.37567e+01
       H -1.48630e+01  1.31654e+01 -1.31074e+01
       O -7.01393e-01 -1.02470e+01 -3.13080e+01
       H  1.72574e-01 -1.08042e+01 -3.13745e+01
       H -7.84355e-01 -1.03473e+01 -3.03643e+01
       O -2.46912e+01 -1.49287e+01  2.39229e+01
       H -2.54210e+01 -1.51332e+01  2.33715e+01
       H -2.51302e+01 -1.51656e+01  2.47473e+01
       O  2.08344e+01 -1.34515e+01  4.26605e+01
       H  2.15785e+01 -1.28685e+01  4.26107e+01
       H  2.01776e+01 -1.30321e+01  4.21083e+01
       O -1.27437e+01 -9.42294e+00 -1.89850e+01
       H -1.29956e+01 -8.64274e+00 -1.95646e+01
       H -1.36821e+01 -9.77387e+00 -1.88580e+01
       O -1.34216e+01 -1.34557e+01 -1.85101e+01
       H -1.31823e+01 -1.43917e+01 -1.85449e+01
       H -1.30963e+01 -1.31631e+01 -1.93783e+01
       O -2.29924e+01 -1.34729e+01  2.82341e+01
       H -2.30273e+01 -1.44517e+01  2.84394e+01
       H -2.33823e+01 -1.34025e+01  2.73782e+01
       O -6.17595e+00 -1.26784e+01 -2.13033e+01
       H -6.80409e+00 -1.19460e+01 -2.14310e+01
       H -5.84705e+00 -1.25060e+01 -2.04296e+01
       O -3.52370e+00 -1.75168e+01 -1.84399e+01
       H -3.88697e+00 -1.66295e+01 -1.83821e+01
       H -3.09250e+00 -1.74798e+01 -1.92757e+01
       O -1.21664e+01  2.68179e+01 -8.67615e+00
       H -1.27681e+01  2.71439e+01 -9.39916e+00
       H -1.12433e+01  2.71082e+01 -9.03825e+00
       O -1.13860e+01  3.36977e+00 -1.24424e+01
       H -1.19872e+01  2.74852e+00 -1.20456e+01
       H -1.15632e+01  4.16389e+00 -1.19698e+01
       O -1.01121e+01 -6.34272e+00  7.74797e-01
       H -9.67266e+00 -6.61355e+00 -5.04803e-02
       H -1.04557e+01 -7.17798e+00  9.46153e-01
       O -3.01835e+00 -1.68888e+01 -3.25336e+01
       H -2.55272e+00 -1.76681e+01 -3.28238e+01
       H -2.80072e+00 -1.68144e+01 -3.15573e+01
       O  1.16870e+01 -6.51348e+00 -1.14913e+01
       H  1.13924e+01 -6.50757e+00 -1.24458e+01
       H  1.15786e+01 -7.46173e+00 -1.12258e+01
       O -1.69713e+01 -1.17454e+01  2.07181e+01
       H -1.67777e+01 -1.09263e+01  2.03088e+01
       H -1.68312e+01 -1.22476e+01  1.98761e+01
       O  2.57499e+01 -1.82796e+01  1.52317e+01
       H  2.66253e+01 -1.82468e+01  1.56025e+01
       H  2.56932e+01 -1.91786e+01  1.47998e+01
       O -2.78455e+01 -5.12122e+00  1.66182e+01
       H -2.77269e+01 -4.90414e+00  1.56376e+01
       H -2.80679e+01 -6.09639e+00  1.65841e+01
       O -2.16417e+01  2.88156e+01 -1.37347e+01
       H -2.15390e+01  2.79707e+01 -1.31983e+01
       H -2.10378e+01  2.86593e+01 -1.44410e+01
       O -1.85828e+01 -1.09250e+01  1.52572e+01
       H -1.90704e+01 -1.13303e+01  1.44660e+01
       H -1.82538e+01 -1.00915e+01  1.49414e+01
       O  2.41274e+01 -2.55067e+01  1.31088e+01
       H  2.43792e+01 -2.45899e+01  1.28153e+01
       H  2.38641e+01 -2.59821e+01  1.22552e+01
       O  1.27499e+01 -2.60053e+01 -1.10260e+01
       H  1.27782e+01 -2.53691e+01 -1.18013e+01
       H  1.18557e+01 -2.63721e+01 -1.12483e+01
       O -4.35648e+00 -1.54830e+01 -4.50150e+00
       H -4.16407e+00 -1.51838e+01 -5.38596e+00
       H -4.46752e+00 -1.64186e+01 -4.79577e+00
       O  1.13282e+01 -2.01811e+01 -8.21688e+00
       H  1.14842e+01 -1.98460e+01 -7.32438e+00
       H  1.07674e+01 -2.09848e+01 -8.08791e+00
       O -8.65713e+00  1.55866e+01 -2.35582e+01
       H -8.15049e+00  1.57855e+01  2.47093e+01
       H -9.34788e+00  1.50008e+01  2.43107e+01
       O  1.73702e+01 -2.21447e+01  1.77269e+01
       H  1.76808e+01 -2.25527e+01 -3.05760e+01
       H  1.82571e+01 -2.17085e+01 -2.95306e+01
       O  2.74328e+00  1.72053e+01  5.20964e+00
       H  2.84285e+00  1.81743e+01  5.04976e+00
       H  3.50389e+00  1.71096e+01  5.79893e+00
       O -1.07990e+01  2.66710e+01  1.33895e+01
       H -1.15975e+01  2.72584e+01  1.33285e+01
       H -1.07209e+01  2.63230e+01  1.25038e+01
       O  2.17296e+01 -2.25723e+00  4.10871e+01
       H  2.16640e+01 -3.01507e+00  4.16537e+01
       H  2.09162e+01 -2.49524e+00  4.05878e+01
       O  1.15059e+01 -2.12210e+01 -1.46522e+01
       H  1.20432e+01 -2.05474e+01 -1.42187e+01
       H  1.07813e+01 -2.12648e+01 -1.40106e+01
       O -2.22058e+00 -1.49465e+01 -2.00948e+01
       H -1.99866e+00 -1.45213e+01 -2.09278e+01
       H -2.51181e+00 -1.58327e+01 -2.03627e+01
       O -7.59903e+00 -1.86402e+01 -4.67931e+00
       H -7.03750e+00  2.82876e+01 -4.05741e+00
       H -7.35626e+00 -1.77256e+01 -4.52276e+00
       O  3.78411e+01  4.29753e-01  2.91970e+01
       H  3.78799e+01  9.94377e-01  2.84039e+01
       H  3.73568e+01 -3.17591e-01  2.88222e+01
       O -2.69403e+01  9.50534e+00 -4.18955e+00
       H -2.65146e+01  9.17717e+00 -4.95680e+00
       H -2.65229e+01  1.04122e+01 -4.10533e+00
       O  2.22467e+01 -3.82475e+00 -1.28844e+01
       H  2.17926e+01 -3.68554e+00 -1.37157e+01
       H  2.31109e+01 -4.18530e+00 -1.32359e+01
       O -6.27070e+00 -2.19981e+01  2.60605e+01
       H -6.70885e+00 -2.28134e+01  2.58387e+01
       H -6.56346e+00 -2.14461e+01  2.52961e+01
       O -1.28950e+01 -5.95886e+00 -3.21674e+00
       H -1.29626e+01 -5.55033e+00 -4.07884e+00
       H -1.38432e+01 -6.16700e+00 -3.17200e+00
       O  2.41499e+00 -2.05431e+01 -1.04841e+01
       H  1.87015e+00 -2.01747e+01 -1.12176e+01
       H  2.92012e+00 -1.98311e+01 -1.00966e+01
       O -1.89759e+01 -1.17287e+01 -7.27609e+00
       H -1.95201e+01 -1.24539e+01 -7.68700e+00
       H -1.95822e+01 -1.15896e+01 -6.46947e+00
       O -2.06445e+01 -2.78897e+01  1.56501e+01
       H -2.07176e+01 -2.87004e+01  1.62078e+01
       H -2.12963e+01 -2.72242e+01  1.59794e+01
       O  5.83672e+00 -3.56706e+01  1.91754e+00
       H  6.15110e+00 -3.54394e+01  1.03261e+00
       H  6.05837e+00 -3.66346e+01  1.94309e+00
       O -5.74661e+00 -1.88079e+01  1.78727e+01
       H -6.45664e+00 -1.94567e+01  1.77895e+01
       H -5.15694e+00 -1.91988e+01  1.85497e+01
       O  1.12939e+00 -2.64206e-01 -8.71212e+00
       H  1.32625e+00  6.31340e-01 -9.14102e+00
       H  1.80467e-01 -2.65681e-01 -8.47538e+00
       O -1.51483e+01 -1.02500e+01 -1.75998e+01
       H -1.59119e+01 -1.03501e+01 -1.70194e+01
       H -1.44925e+01 -9.79438e+00 -1.70157e+01
       O  2.00058e+01 -2.42394e+01 -1.58886e+01
       H  2.03463e+01 -2.51480e+01 -1.58281e+01
       H  2.07908e+01 -2.36414e+01 -1.60382e+01
       O -9.92864e+00 -1.88119e+01 -1.12776e+01
       H -1.02269e+01 -1.95405e+01 -1.18334e+01
       H -1.08011e+01 -1.83268e+01 -1.12054e+01
       O -1.64557e+01 -1.31359e+01 -1.02296e+01
       H -1.69222e+01 -1.34967e+01 -9.43962e+00
       H -1.70729e+01 -1.24646e+01 -1.05791e+01
       O  6.88934e+00 -2.21030e+01 -2.94288e+01
       H  7.11348e+00 -2.29900e+01 -2.89542e+01
       H  7.62415e+00 -2.15216e+01 -2.90576e+01
       O  1.40767e+01 -2.96652e+01 -1.48218e+01
       H  1.42041e+01 -2.87446e+01 -1.49034e+01
       H  1.40867e+01 -2.98880e+01 -1.58012e+01
       O  1.58003e+01  2.23305e+01  1.06089e+01
       H  1.66799e+01  2.21982e+01  1.01673e+01
       H  1.59812e+01  2.26303e+01  1.15100e+01
       O -1.21706e+01 -4.62322e+00 -1.00054e+01
       H -1.24244e+01 -5.21497e+00 -9.30426e+00
       H -1.12715e+01 -4.82807e+00 -1.01413e+01
       O -1.73448e+00 -3.58696e+01 -4.07361e-01
       H -1.06487e+00  1.10580e+01  7.83824e-02
       H -1.61685e+00 -3.60497e+01 -1.35610e+00
       O -7.86282e+00 -7.56691e+00 -2.34508e+01
       H -7.40083e+00 -8.14597e+00 -2.27510e+01
       H -7.07575e+00 -7.29091e+00 -2.40280e+01
       O -2.01880e+01 -3.80329e+01  1.39405e+01
       H -2.04653e+01 -3.73534e+01  1.45877e+01
       H -2.08702e+01 -3.86373e+01  1.40109e+01
       O  2.96142e+00  7.15480e+00 -1.42868e+00
       H  2.39265e+00  7.04944e+00 -5.55399e-01
       H  2.32731e+00  6.81222e+00 -2.04168e+00
       O -2.53913e+01 -4.77319e+00 -4.61822e+00
       H -2.51799e+01 -4.66949e+00 -3.65773e+00
       H -2.44766e+01 -4.47589e+00 -4.95678e+00
       O  2.95398e+01 -1.99151e+01  1.44476e+01
       H  2.89814e+01 -1.91099e+01  1.43315e+01
       H  2.96554e+01 -2.00828e+01  1.35376e+01
       O -9.96285e+00 -1.60722e+01 -3.68050e+00
       H -9.03355e+00 -1.59604e+01 -3.84441e+00
       H -1.02574e+01 -1.65850e+01 -4.45132e+00
       O  1.21913e+01 -1.63762e+01 -1.06551e+01
       H  1.15390e+01 -1.64643e+01 -1.13462e+01
       H  1.16062e+01  3.12490e+01 -9.84874e+00
       O -1.28299e+01  2.29513e+01  6.08052e+00
       H -1.19721e+01  2.34984e+01  5.99861e+00
       H -1.26891e+01  2.23684e+01  5.27975e+00
       O -5.46282e+00 -1.08645e+01 -3.07044e+01
       H -4.97044e+00 -1.14771e+01 -3.01383e+01
       H -5.87743e+00 -1.15325e+01 -3.12656e+01
       O  2.61421e+01 -1.10611e+01  2.90368e+01
       H  2.56955e+01 -1.18761e+01  2.86902e+01
       H  2.67528e+01 -1.09545e+01  2.82894e+01
       O  9.01689e+00  1.27999e+00  1.50208e+00
       H  9.52058e+00  5.72247e-01  1.89175e+00
       H  8.23689e+00  1.36703e+00  2.10199e+00
       O  1.48500e+01 -1.12599e+01 -2.83901e+01
       H  1.52892e+01 -1.07158e+01 -2.91427e+01
       H  1.43075e+01 -1.05286e+01 -2.80459e+01
       O -1.07121e+01  2.22976e+01 -7.30997e+00
       H -1.16115e+01  2.26114e+01 -7.58875e+00
       H -1.04391e+01  2.18094e+01 -8.11431e+00
       O -6.54623e+00 -1.58066e+01 -2.55725e+01
       H -6.92247e+00 -1.48934e+01 -2.58320e+01
       H -6.40489e+00 -1.62342e+01 -2.64453e+01
       O  3.13711e-01  1.52399e+00 -1.73561e+01
       H  5.12929e-01  1.16928e+00 -1.64941e+01
       H  4.57080e-01  8.46828e-01 -1.80027e+01
       O -2.23837e+00 -6.27945e+00  1.41981e+01
       H -3.06128e+00 -5.91229e+00  1.46079e+01
       H -1.60094e+00 -6.27292e+00  1.49233e+01
       O -8.07261e+00 -2.18944e+01 -2.83111e+01
       H -7.10307e+00 -2.22043e+01 -2.83244e+01
       H -8.04187e+00 -2.09237e+01 -2.82881e+01
       O  1.18014e+01  1.61589e+00 -2.93129e+01
       H  1.25790e+01  1.89790e+00 -2.87947e+01
       H  1.12782e+01  1.09581e+00 -2.86877e+01
       O -9.46025e+00 -1.00084e+01  2.15958e+01
       H -9.91674e+00 -1.03307e+01  2.08607e+01
       H -8.99673e+00 -1.07892e+01  2.20189e+01
       O -7.54860e+00 -1.49491e+01 -6.94466e+00
       H -8.05898e+00 -1.44098e+01 -7.55501e+00
       H -7.09018e+00 -1.55493e+01 -7.51309e+00
       O -1.57738e+01 -1.36015e+01  2.55786e+01
       H -1.66213e+01 -1.35023e+01  2.51199e+01
       H -1.60073e+01 -1.31815e+01  2.63888e+01
       O  1.04473e+01 -6.21805e+00 -1.38377e+01
       H  9.64065e+00 -6.76123e+00 -1.38695e+01
       H  1.03785e+01 -5.68554e+00 -1.47087e+01
       O -7.59999e+00  9.05430e+00 -9.54213e+00
       H -8.52847e+00  9.25866e+00 -9.25309e+00
       H -7.09971e+00  9.28773e+00 -8.80236e+00
       O -5.25594e+00 -4.33413e+00 -2.88173e+01
       H -5.57448e+00 -3.42560e+00 -2.86897e+01
       H -6.03502e+00 -4.84761e+00 -2.84843e+01
       O -2.63687e+00 -1.25804e+01 -1.07227e+01
       H -3.23692e+00 -1.18821e+01 -1.11376e+01
       H -1.85678e+00 -1.20134e+01 -1.06705e+01
       O -7.28336e+00 -1.09114e+01 -2.87212e+01
       H -6.39384e+00 -1.07744e+01 -2.90967e+01
       H -7.45840e+00 -1.00156e+01 -2.83747e+01
       O -2.56132e+00 -7.78427e+00 -2.34401e+01
       H -2.28936e+00 -8.26883e+00 -2.26864e+01
       H -2.76512e+00 -6.88329e+00 -2.31610e+01
       O -4.46883e+00  2.65560e+01 -1.30533e+01
       H -4.12102e+00  2.73543e+01 -1.34229e+01
       H -4.65028e+00  2.59878e+01 -1.38822e+01
       O -6.53277e+00 -1.91742e+01 -7.68618e+00
       H -7.02070e+00 -1.92669e+01 -6.86096e+00
       H -6.78011e+00 -1.99932e+01 -8.18718e+00
       O -1.00858e+00  5.32926e+00 -9.12579e-01
       H -1.29557e+00  5.76004e+00 -1.71485e+00
       H -1.41041e+00  5.93535e+00 -2.53367e-01
       O -3.17114e+00 -2.41056e+01 -2.88827e+01
       H -3.79750e+00 -2.47035e+01 -2.94178e+01
       H -2.42299e+00 -2.42514e+01 -2.94188e+01
       O -3.03864e+01 -1.22784e+01 -1.66586e+01
       H -3.09394e+01 -1.15740e+01 -1.62429e+01
       H -2.95009e+01 -1.18017e+01 -1.65984e+01
       O -2.15422e+01 -1.91983e+01 -1.93216e+01
       H -2.09369e+01 -1.84180e+01 -1.91643e+01
       H -2.15767e+01 -1.92416e+01 -2.02597e+01
       O  8.72225e+00  2.32666e+01 -1.03856e+01
       H  7.93634e+00  2.36619e+01 -1.08492e+01
       H  9.51753e+00  2.38899e+01 -1.05691e+01
       O -1.18122e+01  1.87202e+01 -1.37535e+01
       H -1.15262e+01  1.89710e+01 -1.46618e+01
       H -1.21611e+01  1.78509e+01 -1.38568e+01
       O  2.16029e+01 -2.92386e+01  1.23379e+01
       H  2.15363e+01 -2.96779e+01  1.15032e+01
       H  2.14458e+01 -2.82328e+01  1.21771e+01
       O -4.16643e-01 -7.25094e+00 -3.08718e+01
       H -9.64931e-01 -7.39906e+00 -3.00498e+01
       H -3.54386e-01 -8.16874e+00 -3.11019e+01
       O  1.13761e+01  2.85992e+01 -5.69709e+00
       H  1.23490e+01  2.89649e+01 -5.61005e+00
       H  1.13988e+01  2.76441e+01 -5.39895e+00
       O -2.31355e+01 -1.01807e+01 -7.46148e+00
       H -2.27223e+01 -9.27561e+00 -7.50992e+00
       H -2.40481e+01 -9.89524e+00 -7.53488e+00
       O -2.28083e+01  3.88687e+00 -7.25386e+00
       H -2.33134e+01  3.08480e+00 -6.97617e+00
       H -2.23080e+01  3.42804e+00 -7.97512e+00
       O -1.11673e+01 -1.13283e+01 -1.53704e+01
       H -1.06779e+01 -1.15935e+01 -1.46061e+01
       H -1.17660e+01 -1.19688e+01 -1.56700e+01
       O -1.03575e+01  1.16733e+01  2.04258e+01
       H -1.05664e+01  1.10733e+01  1.97159e+01
       H -1.12684e+01  1.18528e+01  2.09288e+01
       O  3.52541e+00  2.25032e+01 -2.51037e+00
       H  3.73663e+00 -2.40116e+01 -2.77230e+00
       H  2.70570e+00  2.25104e+01 -1.93976e+00
       O -2.16720e+01 -2.10142e+01 -7.22971e+00
       H -2.21138e+01 -2.19077e+01 -7.18887e+00
       H -2.08147e+01 -2.12727e+01 -6.73620e+00
       O -1.67991e+01  1.70711e+01 -9.30722e+00
       H -1.58009e+01  1.71967e+01 -9.25886e+00
       H -1.70264e+01  1.68359e+01 -8.39703e+00
       O -1.09090e+01 -1.01385e+01 -8.22357e+00
       H -1.09535e+01 -1.01452e+01 -9.22136e+00
       H -1.18222e+01 -9.94698e+00 -8.02375e+00
       O -3.14777e+00 -5.77007e+00 -1.50740e+01
       H -3.68830e+00 -6.06653e+00 -1.42925e+01
       H -2.31382e+00 -5.49648e+00 -1.46394e+01
       O -6.72699e+00 -1.29671e+01 -3.21774e+01
       H -7.44448e+00 -1.29949e+01 -3.15597e+01
       H -7.17453e+00 -1.32864e+01 -3.29690e+01
       O -6.70785e+00 -2.38259e+01 -1.57587e+01
       H -6.84709e+00 -2.42076e+01 -1.66477e+01
       H -6.03092e+00 -2.44415e+01 -1.53180e+01
       O  1.75258e+01 -9.68484e+00 -7.56938e+00
       H  1.68266e+01 -1.02630e+01 -7.42849e+00
       H  1.77101e+01 -9.90100e+00 -8.48844e+00
       O -1.09932e+01 -1.12127e+01 -2.02523e+01
       H -1.17803e+01 -1.13929e+01 -2.08420e+01
       H -1.15076e+01 -1.07940e+01 -1.96142e+01
       O -2.84631e+01 -1.04616e+01 -1.90527e+01
       H -2.82945e+01 -1.08771e+01 -1.82386e+01
       H -2.91187e+01 -9.77670e+00 -1.87717e+01
       O  2.55361e+00 -1.15472e+01  1.52799e+00
       H  2.70310e+00 -1.16196e+01  2.55857e+00