4
# CELL(abcABC): 1000.00000  1000.00000  1000.00000    90.00000    90.00000    90.00000  Step:           0  Bead:       0 positions{angstrom}  cell{angstrom}
       O -3.14630e+00  1.06795e+00  3.47154e-01
       H -2.51571e+00  5.53876e-01  7.67948e-01
       H -3.31048e+00  1.85247e+00  8.20619e-01
       H -3.61734e+00  7.12183e-01 -4.13436e-01
4
# CELL(abcABC): 1000.00000  1000.00000  1000.00000    90.00000    90.00000    90.00000  Step:           1  Bead:       0 positions{angstrom}  cell{angstrom}
       O -3.14476e+00  1.06819e+00  3.46428e-01
       H -2.52287e+00  5.45072e-01  7.74008e-01
       H -3.31055e+00  1.85401e+00  8.22912e-01
       H -3.63460e+00  7.15651e-01 -4.10269e-01
4
# CELL(abcABC): 1000.00000  1000.00000  1000.00000    90.00000    90.00000    90.00000  Step:           2  Bead:       0 positions{angstrom}  cell{angstrom}
       O -3.14357e+00  1.06833e+00  3.45347e-01
       H -2.52551e+00  5.33439e-01  7.84052e-01
       H -3.30936e+00  1.85954e+00  8.27304e-01
       H -3.65196e+00  7.19565e-01 -4.07549e-01
4
# CELL(abcABC): 1000.00000  1000.00000  1000.00000    90.00000    90.00000    90.00000  Step:           3  Bead:       0 positions{angstrom}  cell{angstrom}
       O -3.14257e+00  1.06843e+00  3.43918e-01
       H -2.52407e+00  5.18430e-01  7.98649e-01
       H -3.30858e+00  1.86928e+00  8.33941e-01
       H -3.67014e+00  7.23240e-01 -4.06093e-01
4
# CELL(abcABC): 1000.00000  1000.00000  1000.00000    90.00000    90.00000    90.00000  Step:           4  Bead:       0 positions{angstrom}  cell{angstrom}
       O -3.14172e+00  1.06851e+00  3.42422e-01
       H -2.52107e+00  5.01421e-01  8.13732e-01
       H -3.30697e+00  1.88140e+00  8.40943e-01
       H -3.68815e+00  7.26771e-01 -4.04437e-01
4
# CELL(abcABC): 1000.00000  1000.00000  1000.00000    90.00000    90.00000    90.00000  Step:           5  Bead:       0 positions{angstrom}  cell{angstrom}
       O -3.14084e+00  1.06843e+00  3.40956e-01
       H -2.51881e+00  4.85091e-01  8.28839e-01
       H -3.30550e+00  1.89493e+00  8.48903e-01
       H -3.70591e+00  7.30940e-01 -4.04230e-01
4
# CELL(abcABC): 1000.00000  1000.00000  1000.00000    90.00000    90.00000    90.00000  Step:           6  Bead:       0 positions{angstrom}  cell{angstrom}
       O -3.13985e+00  1.06838e+00  3.39638e-01
       H -2.51781e+00  4.70916e-01  8.42177e-01
       H -3.30384e+00  1.90558e+00  8.54931e-01
       H -3.72432e+00  7.35238e-01 -4.02672e-01
4
# CELL(abcABC): 1000.00000  1000.00000  1000.00000    90.00000    90.00000    90.00000  Step:           7  Bead:       0 positions{angstrom}  cell{angstrom}
       O -3.13887e+00  1.06820e+00  3.38326e-01
       H -2.51769e+00  4.59572e-01  8.55110e-01
       H -3.30130e+00  1.91342e+00  8.60196e-01
       H -3.74252e+00  7.41540e-01 -4.00038e-01
4
# CELL(abcABC): 1000.00000  1000.00000  1000.00000    90.00000    90.00000    90.00000  Step:           8  Bead:       0 positions{angstrom}  cell{angstrom}
       O -3.13792e+00  1.06801e+00  3.37328e-01
       H -2.51956e+00  4.51751e-01  8.64990e-01
       H -3.29655e+00  1.91701e+00  8.62818e-01
       H -3.76046e+00  7.48774e-01 -3.96700e-01
4
# CELL(abcABC): 1000.00000  1000.00000  1000.00000    90.00000    90.00000    90.00000  Step:           9  Bead:       0 positions{angstrom}  cell{angstrom}
       O -3.13695e+00  1.06788e+00  3.36491e-01
       H -2.52464e+00  4.46957e-01  8.73145e-01
       H -3.28948e+00  1.91698e+00  8.63852e-01
       H -3.77778e+00  7.55659e-01 -3.92609e-01
4
# CELL(abcABC): 1000.00000  1000.00000  1000.00000    90.00000    90.00000    90.00000  Step:          10  Bead:       0 positions{angstrom}  cell{angstrom}
       O -3.13594e+00  1.06765e+00  3.36074e-01
       H -2.53283e+00  4.46100e-01  8.77419e-01
       H -3.28095e+00  1.91381e+00  8.61957e-01
       H -3.79427e+00  7.63402e-01 -3.88361e-01
4
# CELL(abcABC): 1000.00000  1000.00000  1000.00000    90.00000    90.00000    90.00000  Step:          11  Bead:       0 positions{angstrom}  cell{angstrom}
       O -3.13488e+00  1.06738e+00  3.36076e-01
       H -2.54366e+00  4.49716e-01  8.77280e-01
       H -3.27250e+00  1.90683e+00  8.57632e-01
       H -3.80859e+00  7.71010e-01 -3.83935e-01
4
# CELL(abcABC): 1000.00000  1000.00000  1000.00000    90.00000    90.00000    90.00000  Step:          12  Bead:       0 positions{angstrom}  cell{angstrom}
       O -3.13398e+00  1.06712e+00  3.36380e-01
       H -2.55540e+00  4.56371e-01  8.74050e-01
       H -3.26311e+00  1.89580e+00  8.50696e-01
       H -3.82051e+00  7.79475e-01 -3.78594e-01
4
# CELL(abcABC): 1000.00000  1000.00000  1000.00000    90.00000    90.00000    90.00000  Step:          13  Bead:       0 positions{angstrom}  cell{angstrom}
       O -3.13323e+00  1.06681e+00  3.36806e-01
       H -2.56842e+00  4.66003e-01  8.68927e-01
       H -3.25165e+00  1.88302e+00  8.42867e-01
       H -3.83097e+00  7.87529e-01 -3.72405e-01
4
# CELL(abcABC): 1000.00000  1000.00000  1000.00000    90.00000    90.00000    90.00000  Step:          14  Bead:       0 positions{angstrom}  cell{angstrom}
       O -3.13267e+00  1.06640e+00  3.37217e-01
       H -2.58030e+00  4.76563e-01  8.63030e-01
       H -3.23923e+00  1.87087e+00  8.35020e-01
       H -3.84029e+00  7.95766e-01 -3.65183e-01
4
# CELL(abcABC): 1000.00000  1000.00000  1000.00000    90.00000    90.00000    90.00000  Step:          15  Bead:       0 positions{angstrom}  cell{angstrom}
       O -3.13226e+00  1.06575e+00  3.37300e-01
       H -2.59320e+00  4.86452e-01  8.59196e-01
       H -3.22729e+00  1.86108e+00  8.28349e-01
       H -3.84594e+00  8.05891e-01 -3.55998e-01
4
# CELL(abcABC): 1000.00000  1000.00000  1000.00000    90.00000    90.00000    90.00000  Step:          16  Bead:       0 positions{angstrom}  cell{angstrom}
       O -3.13214e+00  1.06491e+00  3.37147e-01
       H -2.60293e+00  4.94333e-01  8.56076e-01
       H -3.21568e+00  1.85583e+00  8.23551e-01
       H -3.84966e+00  8.16564e-01 -3.45655e-01
4
# CELL(abcABC): 1000.00000  1000.00000  1000.00000    90.00000    90.00000    90.00000  Step:          17  Bead:       0 positions{angstrom}  cell{angstrom}
       O -3.13223e+00  1.06397e+00  3.36671e-01
       H -2.60885e+00  4.99751e-01  8.55192e-01
       H -3.20545e+00  1.85577e+00  8.20059e-01
       H -3.85257e+00  8.26216e-01 -3.33715e-01
4
# CELL(abcABC): 1000.00000  1000.00000  1000.00000    90.00000    90.00000    90.00000  Step:          18  Bead:       0 positions{angstrom}  cell{angstrom}
       O -3.13259e+00  1.06287e+00  3.35847e-01
       H -2.61211e+00  5.02244e-01  8.57090e-01
       H -3.19456e+00  1.86053e+00  8.18751e-01
       H -3.85449e+00  8.36355e-01 -3.21233e-01
4
# CELL(abcABC): 1000.00000  1000.00000  1000.00000    90.00000    90.00000    90.00000  Step:          19  Bead:       0 positions{angstrom}  cell{angstrom}
       O -3.13334e+00  1.06183e+00  3.34699e-01
       H -2.61113e+00  5.00534e-01  8.62184e-01
       H -3.18485e+00  1.86898e+00  8.18583e-01
       H -3.85332e+00  8.46182e-01 -3.07939e-01
4
# CELL(abcABC): 1000.00000  1000.00000  1000.00000    90.00000    90.00000    90.00000  Step:          20  Bead:       0 positions{angstrom}  cell{angstrom}
       O -3.13433e+00  1.06089e+00  3.33409e-01
       H -2.60675e+00  4.95616e-01  8.68081e-01
       H -3.17640e+00  1.88074e+00  8.19727e-01
       H -3.85044e+00  8.54217e-01 -2.94495e-01
4
# CELL(abcABC): 1000.00000  1000.00000  1000.00000    90.00000    90.00000    90.00000  Step:          21  Bead:       0 positions{angstrom}  cell{angstrom}
       O -3.13557e+00  1.06007e+00  3.32140e-01
       H -2.60036e+00  4.87411e-01  8.74067e-01
       H -3.16655e+00  1.89477e+00  8.21984e-01
       H -3.84702e+00  8.61415e-01 -2.82595e-01
4
# CELL(abcABC): 1000.00000  1000.00000  1000.00000    90.00000    90.00000    90.00000  Step:          22  Bead:       0 positions{angstrom}  cell{angstrom}
       O -3.13696e+00  1.05934e+00  3.31084e-01
       H -2.59376e+00  4.76667e-01  8.81143e-01
       H -3.15457e+00  1.90914e+00  8.21832e-01
       H -3.84346e+00  8.69440e-01 -2.72754e-01
4
# CELL(abcABC): 1000.00000  1000.00000  1000.00000    90.00000    90.00000    90.00000  Step:          23  Bead:       0 positions{angstrom}  cell{angstrom}
       O -3.13839e+00  1.05878e+00  3.30488e-01
       H -2.58688e+00  4.66034e-01  8.86664e-01
       H -3.14152e+00  1.92267e+00  8.20466e-01
       H -3.84075e+00  8.75443e-01 -2.67457e-01
4
# CELL(abcABC): 1000.00000  1000.00000  1000.00000    90.00000    90.00000    90.00000  Step:          24  Bead:       0 positions{angstrom}  cell{angstrom}
       O -3.13975e+00  1.05831e+00  3.30292e-01
       H -2.58029e+00  4.55077e-01  8.90170e-01
       H -3.12785e+00  1.93479e+00  8.17141e-01
       H -3.83932e+00  8.81693e-01 -2.64531e-01
4
# CELL(abcABC): 1000.00000  1000.00000  1000.00000    90.00000    90.00000    90.00000  Step:          25  Bead:       0 positions{angstrom}  cell{angstrom}
       O -3.14092e+00  1.05812e+00  3.30478e-01
       H -2.57546e+00  4.44732e-01  8.91821e-01
       H -3.11426e+00  1.94286e+00  8.11402e-01
       H -3.83918e+00  8.86961e-01 -2.63394e-01
4
# CELL(abcABC): 1000.00000  1000.00000  1000.00000    90.00000    90.00000    90.00000  Step:          26  Bead:       0 positions{angstrom}  cell{angstrom}
       O -3.14187e+00  1.05819e+00  3.31150e-01
       H -2.57292e+00  4.36053e-01  8.89619e-01
       H -3.10014e+00  1.94678e+00  8.02752e-01
       H -3.84084e+00  8.90601e-01 -2.63195e-01
4
# CELL(abcABC): 1000.00000  1000.00000  1000.00000    90.00000    90.00000    90.00000  Step:          27  Bead:       0 positions{angstrom}  cell{angstrom}
       O -3.14267e+00  1.05839e+00  3.32354e-01
       H -2.57318e+00  4.31083e-01  8.83403e-01
       H -3.08583e+00  1.94597e+00  7.91195e-01
       H -3.84209e+00  8.93156e-01 -2.64540e-01
4
# CELL(abcABC): 1000.00000  1000.00000  1000.00000    90.00000    90.00000    90.00000  Step:          28  Bead:       0 positions{angstrom}  cell{angstrom}
       O -3.14319e+00  1.05871e+00  3.33961e-01
       H -2.57708e+00  4.27411e-01  8.73812e-01
       H -3.07079e+00  1.94185e+00  7.77703e-01
       H -3.84499e+00  8.95920e-01 -2.66967e-01
4
# CELL(abcABC): 1000.00000  1000.00000  1000.00000    90.00000    90.00000    90.00000  Step:          29  Bead:       0 positions{angstrom}  cell{angstrom}
       O -3.14354e+00  1.05905e+00  3.35973e-01
       H -2.58256e+00  4.26663e-01  8.59947e-01
       H -3.05655e+00  1.93511e+00  7.62586e-01
       H -3.84822e+00  8.98105e-01 -2.69920e-01
4
# CELL(abcABC): 1000.00000  1000.00000  1000.00000    90.00000    90.00000    90.00000  Step:          30  Bead:       0 positions{angstrom}  cell{angstrom}
       O -3.14375e+00  1.05927e+00  3.38231e-01
       H -2.58933e+00  4.28961e-01  8.44649e-01
       H -3.04235e+00  1.92700e+00  7.46993e-01
       H -3.85227e+00  9.00353e-01 -2.74876e-01
4
# CELL(abcABC): 1000.00000  1000.00000  1000.00000    90.00000    90.00000    90.00000  Step:          31  Bead:       0 positions{angstrom}  cell{angstrom}
       O -3.14405e+00  1.05933e+00  3.40702e-01
       H -2.59532e+00  4.32555e-01  8.28253e-01
       H -3.02724e+00  1.92018e+00  7.30672e-01
       H -3.85670e+00  9.02704e-01 -2.81377e-01
4
# CELL(abcABC): 1000.00000  1000.00000  1000.00000    90.00000    90.00000    90.00000  Step:          32  Bead:       0 positions{angstrom}  cell{angstrom}
       O -3.14437e+00  1.05939e+00  3.43013e-01
       H -2.60197e+00  4.34264e-01  8.12201e-01
       H -3.01111e+00  1.91626e+00  7.16200e-01
       H -3.86109e+00  9.03911e-01 -2.87545e-01
4
# CELL(abcABC): 1000.00000  1000.00000  1000.00000    90.00000    90.00000    90.00000  Step:          33  Bead:       0 positions{angstrom}  cell{angstrom}
       O -3.14482e+00  1.05950e+00  3.45120e-01
       H -2.60791e+00  4.34053e-01  7.98098e-01
       H -2.99397e+00  1.91405e+00  7.03384e-01
       H -3.86516e+00  9.04511e-01 -2.94065e-01
4
# CELL(abcABC): 1000.00000  1000.00000  1000.00000    90.00000    90.00000    90.00000  Step:          34  Bead:       0 positions{angstrom}  cell{angstrom}
       O -3.14536e+00  1.05960e+00  3.47140e-01
       H -2.61127e+00  4.31354e-01  7.85329e-01
       H -2.97784e+00  1.91469e+00  6.92412e-01
       H -3.86935e+00  9.04970e-01 -3.02386e-01
4
# CELL(abcABC): 1000.00000  1000.00000  1000.00000    90.00000    90.00000    90.00000  Step:          35  Bead:       0 positions{angstrom}  cell{angstrom}
       O -3.14622e+00  1.05965e+00  3.48925e-01
       H -2.61019e+00  4.25564e-01  7.73782e-01
       H -2.96204e+00  1.91978e+00  6.83745e-01
       H -3.87260e+00  9.04890e-01 -3.10505e-01
4
# CELL(abcABC): 1000.00000  1000.00000  1000.00000    90.00000    90.00000    90.00000  Step:          36  Bead:       0 positions{angstrom}  cell{angstrom}
       O -3.14741e+00  1.05964e+00  3.50487e-01
       H -2.60603e+00  4.16688e-01  7.63718e-01
       H -2.94527e+00  1.92910e+00  6.75693e-01
       H -3.87463e+00  9.04676e-01 -3.17184e-01
4
# CELL(abcABC): 1000.00000  1000.00000  1000.00000    90.00000    90.00000    90.00000  Step:          37  Bead:       0 positions{angstrom}  cell{angstrom}
       O -3.14894e+00  1.05974e+00  3.51727e-01
       H -2.59868e+00  4.06008e-01  7.57124e-01
       H -2.92733e+00  1.93952e+00  6.68188e-01
       H -3.87560e+00  9.03246e-01 -3.22767e-01
4
# CELL(abcABC): 1000.00000  1000.00000  1000.00000    90.00000    90.00000    90.00000  Step:          38  Bead:       0 positions{angstrom}  cell{angstrom}
       O -3.15054e+00  1.05993e+00  3.52973e-01
       H -2.59055e+00  3.93494e-01  7.50472e-01
       H -2.90886e+00  1.94916e+00  6.60971e-01
       H -3.87684e+00  9.03109e-01 -3.28686e-01
4
# CELL(abcABC): 1000.00000  1000.00000  1000.00000    90.00000    90.00000    90.00000  Step:          39  Bead:       0 positions{angstrom}  cell{angstrom}
       O -3.15246e+00  1.06034e+00  3.54009e-01
       H -2.58078e+00  3.79908e-01  7.44844e-01
       H -2.88973e+00  1.95666e+00  6.54850e-01
       H -3.87530e+00  9.02767e-01 -3.33369e-01
4
# CELL(abcABC): 1000.00000  1000.00000  1000.00000    90.00000    90.00000    90.00000  Step:          40  Bead:       0 positions{angstrom}  cell{angstrom}
       O -3.15449e+00  1.06077e+00  3.54802e-01
       H -2.57110e+00  3.67271e-01  7.40020e-01
       H -2.87034e+00  1.96228e+00  6.50288e-01
       H -3.87210e+00  9.02918e-01 -3.36573e-01
4
# CELL(abcABC): 1000.00000  1000.00000  1000.00000    90.00000    90.00000    90.00000  Step:          41  Bead:       0 positions{angstrom}  cell{angstrom}
       O -3.15650e+00  1.06123e+00  3.55528e-01
       H -2.56282e+00  3.57317e-01  7.34043e-01
       H -2.85065e+00  1.96541e+00  6.45759e-01
       H -3.86812e+00  9.02544e-01 -3.37600e-01
4
# CELL(abcABC): 1000.00000  1000.00000  1000.00000    90.00000    90.00000    90.00000  Step:          42  Bead:       0 positions{angstrom}  cell{angstrom}
       O -3.15853e+00  1.06184e+00  3.56327e-01
       H -2.55490e+00  3.48263e-01  7.26620e-01
       H -2.83134e+00  1.96511e+00  6.41161e-01
       H -3.86315e+00  9.02065e-01 -3.38264e-01
4
# CELL(abcABC): 1000.00000  1000.00000  1000.00000    90.00000    90.00000    90.00000  Step:          43  Bead:       0 positions{angstrom}  cell{angstrom}
       O -3.16038e+00  1.06242e+00  3.57191e-01
       H -2.54967e+00  3.43417e-01  7.17426e-01
       H -2.81280e+00  1.96237e+00  6.36286e-01
       H -3.85754e+00  9.00597e-01 -3.37895e-01
4
# CELL(abcABC): 1000.00000  1000.00000  1000.00000    90.00000    90.00000    90.00000  Step:          44  Bead:       0 positions{angstrom}  cell{angstrom}
       O -3.16199e+00  1.06302e+00  3.58120e-01
       H -2.54695e+00  3.41539e-01  7.06103e-01
       H -2.79536e+00  1.95540e+00  6.30390e-01
       H -3.85216e+00  8.99790e-01 -3.35435e-01
4
# CELL(abcABC): 1000.00000  1000.00000  1000.00000    90.00000    90.00000    90.00000  Step:          45  Bead:       0 positions{angstrom}  cell{angstrom}
       O -3.16326e+00  1.06365e+00  3.59180e-01
       H -2.54757e+00  3.43379e-01  6.92668e-01
       H -2.77854e+00  1.94425e+00  6.23184e-01
       H -3.84825e+00  8.99209e-01 -3.31619e-01
4
# CELL(abcABC): 1000.00000  1000.00000  1000.00000    90.00000    90.00000    90.00000  Step:          46  Bead:       0 positions{angstrom}  cell{angstrom}
       O -3.16432e+00  1.06427e+00  3.60330e-01
       H -2.55081e+00  3.48996e-01  6.77578e-01
       H -2.76313e+00  1.92936e+00  6.15122e-01
       H -3.84356e+00  8.98661e-01 -3.26717e-01
4
# CELL(abcABC): 1000.00000  1000.00000  1000.00000    90.00000    90.00000    90.00000  Step:          47  Bead:       0 positions{angstrom}  cell{angstrom}
       O -3.16514e+00  1.06473e+00  3.61635e-01
       H -2.55597e+00  3.56685e-01  6.61893e-01
       H -2.74870e+00  1.91281e+00  6.06002e-01
       H -3.83976e+00  9.00179e-01 -3.22628e-01
4
# CELL(abcABC): 1000.00000  1000.00000  1000.00000    90.00000    90.00000    90.00000  Step:          48  Bead:       0 positions{angstrom}  cell{angstrom}
       O -3.16579e+00  1.06522e+00  3.62922e-01
       H -2.56179e+00  3.64519e-01  6.46135e-01
       H -2.73511e+00  1.89621e+00  5.96190e-01
       H -3.83728e+00  9.01123e-01 -3.17490e-01
4
# CELL(abcABC): 1000.00000  1000.00000  1000.00000    90.00000    90.00000    90.00000  Step:          49  Bead:       0 positions{angstrom}  cell{angstrom}
       O -3.16639e+00  1.06565e+00  3.64045e-01
       H -2.56776e+00  3.71728e-01  6.31088e-01
       H -2.72075e+00  1.88004e+00  5.86793e-01
       H -3.83616e+00  9.03290e-01 -3.10864e-01
4
# CELL(abcABC): 1000.00000  1000.00000  1000.00000    90.00000    90.00000    90.00000  Step:          50  Bead:       0 positions{angstrom}  cell{angstrom}
       O -3.16680e+00  1.06609e+00  3.65177e-01
       H -2.57337e+00  3.77503e-01  6.16356e-01
       H -2.70814e+00  1.86510e+00  5.77991e-01
       H -3.83668e+00  9.05507e-01 -3.05307e-01
4
# CELL(abcABC): 1000.00000  1000.00000  1000.00000    90.00000    90.00000    90.00000  Step:          51  Bead:       0 positions{angstrom}  cell{angstrom}
       O -3.16727e+00  1.06646e+00  3.66198e-01
       H -2.57780e+00  3.79982e-01  6.02208e-01
       H -2.69547e+00  1.85366e+00  5.69756e-01
       H -3.83747e+00  9.08532e-01 -2.99129e-01
4
# CELL(abcABC): 1000.00000  1000.00000  1000.00000    90.00000    90.00000    90.00000  Step:          52  Bead:       0 positions{angstrom}  cell{angstrom}
       O -3.16781e+00  1.06689e+00  3.67186e-01
       H -2.58048e+00  3.78369e-01  5.89376e-01
       H -2.68243e+00  1.84562e+00  5.61189e-01
       H -3.83918e+00  9.11383e-01 -2.93412e-01
4
# CELL(abcABC): 1000.00000  1000.00000  1000.00000    90.00000    90.00000    90.00000  Step:          53  Bead:       0 positions{angstrom}  cell{angstrom}
       O -3.16848e+00  1.06726e+00  3.67993e-01
       H -2.58026e+00  3.72982e-01  5.77049e-01
       H -2.66899e+00  1.84333e+00  5.54075e-01
       H -3.84221e+00  9.13222e-01 -2.86780e-01
4
# CELL(abcABC): 1000.00000  1000.00000  1000.00000    90.00000    90.00000    90.00000  Step:          54  Bead:       0 positions{angstrom}  cell{angstrom}
       O -3.16919e+00  1.06769e+00  3.68399e-01
       H -2.57805e+00  3.62638e-01  5.67176e-01
       H -2.65557e+00  1.84568e+00  5.48459e-01
       H -3.84655e+00  9.14271e-01 -2.77735e-01
4
# CELL(abcABC): 1000.00000  1000.00000  1000.00000    90.00000    90.00000    90.00000  Step:          55  Bead:       0 positions{angstrom}  cell{angstrom}
       O -3.16992e+00  1.06814e+00  3.68656e-01
       H -2.57510e+00  3.49322e-01  5.59260e-01
       H -2.64225e+00  1.85109e+00  5.44067e-01
       H -3.85128e+00  9.15113e-01 -2.69498e-01
4
# CELL(abcABC): 1000.00000  1000.00000  1000.00000    90.00000    90.00000    90.00000  Step:          56  Bead:       0 positions{angstrom}  cell{angstrom}
       O -3.17058e+00  1.06854e+00  3.68826e-01
       H -2.56961e+00  3.34459e-01  5.52886e-01
       H -2.63005e+00  1.85795e+00  5.38917e-01
       H -3.85853e+00  9.16812e-01 -2.60685e-01
4
# CELL(abcABC): 1000.00000  1000.00000  1000.00000    90.00000    90.00000    90.00000  Step:          57  Bead:       0 positions{angstrom}  cell{angstrom}
       O -3.17098e+00  1.06886e+00  3.68896e-01
       H -2.56318e+00  3.19904e-01  5.47697e-01
       H -2.62058e+00  1.86482e+00  5.34908e-01
       H -3.86807e+00  9.19384e-01 -2.52599e-01
4
# CELL(abcABC): 1000.00000  1000.00000  1000.00000    90.00000    90.00000    90.00000  Step:          58  Bead:       0 positions{angstrom}  cell{angstrom}
       O -3.17112e+00  1.06916e+00  3.68943e-01
       H -2.55722e+00  3.05768e-01  5.42772e-01
       H -2.61295e+00  1.87108e+00  5.31584e-01
       H -3.87945e+00  9.22402e-01 -2.45091e-01
4
# CELL(abcABC): 1000.00000  1000.00000  1000.00000    90.00000    90.00000    90.00000  Step:          59  Bead:       0 positions{angstrom}  cell{angstrom}
       O -3.17092e+00  1.06933e+00  3.68865e-01
       H -2.55264e+00  2.94171e-01  5.38177e-01
       H -2.60755e+00  1.87642e+00  5.29868e-01
       H -3.89258e+00  9.25960e-01 -2.37545e-01
4
# CELL(abcABC): 1000.00000  1000.00000  1000.00000    90.00000    90.00000    90.00000  Step:          60  Bead:       0 positions{angstrom}  cell{angstrom}
       O -3.17033e+00  1.06945e+00  3.68832e-01
       H -2.55193e+00  2.85556e-01  5.33772e-01
       H -2.60413e+00  1.87905e+00  5.26584e-01
       H -3.90596e+00  9.30152e-01 -2.29330e-01
4
# CELL(abcABC): 1000.00000  1000.00000  1000.00000    90.00000    90.00000    90.00000  Step:          61  Bead:       0 positions{angstrom}  cell{angstrom}
       O -3.16943e+00  1.06949e+00  3.68823e-01
       H -2.55336e+00  2.80288e-01  5.29171e-01
       H -2.60221e+00  1.87900e+00  5.22022e-01
       H -3.92076e+00  9.34857e-01 -2.20024e-01
4
# CELL(abcABC): 1000.00000  1000.00000  1000.00000    90.00000    90.00000    90.00000  Step:          62  Bead:       0 positions{angstrom}  cell{angstrom}
       O -3.16807e+00  1.06949e+00  3.68932e-01
       H -2.55861e+00  2.78267e-01  5.24182e-01
       H -2.60411e+00  1.87590e+00  5.16991e-01
       H -3.93526e+00  9.39915e-01 -2.11730e-01
4
# CELL(abcABC): 1000.00000  1000.00000  1000.00000    90.00000    90.00000    90.00000  Step:          63  Bead:       0 positions{angstrom}  cell{angstrom}
       O -3.16632e+00  1.06926e+00  3.68850e-01
       H -2.56630e+00  2.81174e-01  5.19798e-01
       H -2.60861e+00  1.86977e+00  5.11920e-01
       H -3.95085e+00  9.46823e-01 -2.00975e-01
4
# CELL(abcABC): 1000.00000  1000.00000  1000.00000    90.00000    90.00000    90.00000  Step:          64  Bead:       0 positions{angstrom}  cell{angstrom}
       O -3.16436e+00  1.06888e+00  3.68661e-01
       H -2.57496e+00  2.87783e-01  5.16663e-01
       H -2.61447e+00  1.86178e+00  5.07159e-01
       H -3.96742e+00  9.54173e-01 -1.90079e-01
4
# CELL(abcABC): 1000.00000  1000.00000  1000.00000    90.00000    90.00000    90.00000  Step:          65  Bead:       0 positions{angstrom}  cell{angstrom}
       O -3.16228e+00  1.06830e+00  3.68393e-01
       H -2.58582e+00  2.97537e-01  5.12869e-01
       H -2.62062e+00  1.85438e+00  5.02709e-01
       H -3.98343e+00  9.61008e-01 -1.77578e-01
4
# CELL(abcABC): 1000.00000  1000.00000  1000.00000    90.00000    90.00000    90.00000  Step:          66  Bead:       0 positions{angstrom}  cell{angstrom}
       O -3.16023e+00  1.06750e+00  3.67893e-01
       H -2.59712e+00  3.11046e-01  5.10422e-01
       H -2.62676e+00  1.84590e+00  4.99232e-01
       H -3.99855e+00  9.68693e-01 -1.63717e-01
4
# CELL(abcABC): 1000.00000  1000.00000  1000.00000    90.00000    90.00000    90.00000  Step:          67  Bead:       0 positions{angstrom}  cell{angstrom}
       O -3.15828e+00  1.06671e+00  3.67209e-01
       H -2.60709e+00  3.23001e-01  5.08137e-01
       H -2.63166e+00  1.83913e+00  4.97133e-01
       H -4.01463e+00  9.76156e-01 -1.48483e-01
4
# CELL(abcABC): 1000.00000  1000.00000  1000.00000    90.00000    90.00000    90.00000  Step:          68  Bead:       0 positions{angstrom}  cell{angstrom}
       O -3.15667e+00  1.06586e+00  3.66457e-01
       H -2.61393e+00  3.31968e-01  5.06828e-01
       H -2.63476e+00  1.83510e+00  4.94453e-01
       H -4.03016e+00  9.84632e-01 -1.32560e-01
4
# CELL(abcABC): 1000.00000  1000.00000  1000.00000    90.00000    90.00000    90.00000  Step:          69  Bead:       0 positions{angstrom}  cell{angstrom}
       O -3.15544e+00  1.06520e+00  3.65291e-01
       H -2.61746e+00  3.34936e-01  5.08654e-01
       H -2.63658e+00  1.83453e+00  4.93748e-01
       H -4.04444e+00  9.92768e-01 -1.15160e-01
4
# CELL(abcABC): 1000.00000  1000.00000  1000.00000    90.00000    90.00000    90.00000  Step:          70  Bead:       0 positions{angstrom}  cell{angstrom}
       O -3.15484e+00  1.06451e+00  3.63889e-01
       H -2.61644e+00  3.33188e-01  5.11148e-01
       H -2.63607e+00  1.83829e+00  4.93821e-01
       H -4.05553e+00  1.00170e+00 -9.54726e-02
4
# CELL(abcABC): 1000.00000  1000.00000  1000.00000    90.00000    90.00000    90.00000  Step:          71  Bead:       0 positions{angstrom}  cell{angstrom}
       O -3.15464e+00  1.06403e+00  3.62335e-01
       H -2.61214e+00  3.25162e-01  5.13747e-01
       H -2.63413e+00  1.84463e+00  4.94390e-01
       H -4.06489e+00  1.01103e+00 -7.39860e-02
4
# CELL(abcABC): 1000.00000  1000.00000  1000.00000    90.00000    90.00000    90.00000  Step:          72  Bead:       0 positions{angstrom}  cell{angstrom}
       O -3.15485e+00  1.06356e+00  3.60551e-01
       H -2.60438e+00  3.13354e-01  5.17823e-01
       H -2.63063e+00  1.85338e+00  4.96478e-01
       H -4.07281e+00  1.02153e+00 -5.18228e-02
4
# CELL(abcABC): 1000.00000  1000.00000  1000.00000    90.00000    90.00000    90.00000  Step:          73  Bead:       0 positions{angstrom}  cell{angstrom}
       O -3.15525e+00  1.06320e+00  3.58704e-01
       H -2.59497e+00  2.99079e-01  5.22537e-01
       H -2.62650e+00  1.86356e+00  4.99158e-01
       H -4.07995e+00  1.03131e+00 -2.98985e-02
4
# CELL(abcABC): 1000.00000  1000.00000  1000.00000    90.00000    90.00000    90.00000  Step:          74  Bead:       0 positions{angstrom}  cell{angstrom}
       O -3.15578e+00  1.06282e+00  3.56939e-01
       H -2.58486e+00  2.84489e-01  5.26280e-01
       H -2.62254e+00  1.87355e+00  5.01003e-01
       H -4.08572e+00  1.04190e+00 -7.47698e-03
4
# CELL(abcABC): 1000.00000  1000.00000  1000.00000    90.00000    90.00000    90.00000  Step:          75  Bead:       0 positions{angstrom}  cell{angstrom}
       O -3.15609e+00  1.06249e+00  3.55154e-01
       H -2.57614e+00  2.70257e-01  5.29376e-01
       H -2.62006e+00  1.88155e+00  5.03712e-01
       H -4.09193e+00  1.05342e+00  1.50595e-02
4
# CELL(abcABC): 1000.00000  1000.00000  1000.00000    90.00000    90.00000    90.00000  Step:          76  Bead:       0 positions{angstrom}  cell{angstrom}
       O -3.15632e+00  1.06200e+00  3.53265e-01
       H -2.56853e+00  2.59046e-01  5.33115e-01
       H -2.61913e+00  1.88734e+00  5.06447e-01
       H -4.09676e+00  1.06653e+00  3.85647e-02
4
# CELL(abcABC): 1000.00000  1000.00000  1000.00000    90.00000    90.00000    90.00000  Step:          77  Bead:       0 positions{angstrom}  cell{angstrom}
       O -3.15623e+00  1.06144e+00  3.51393e-01
       H -2.56370e+00  2.52545e-01  5.36163e-01
       H -2.62041e+00  1.89053e+00  5.09595e-01
       H -4.10179e+00  1.07878e+00  6.20817e-02
4
# CELL(abcABC): 1000.00000  1000.00000  1000.00000    90.00000    90.00000    90.00000  Step:          78  Bead:       0 positions{angstrom}  cell{angstrom}
       O -3.15579e+00  1.06083e+00  3.49763e-01
       H -2.56318e+00  2.49714e-01  5.37402e-01
       H -2.62272e+00  1.89114e+00  5.12194e-01
       H -4.10698e+00  1.09064e+00  8.41145e-02
4
# CELL(abcABC): 1000.00000  1000.00000  1000.00000    90.00000    90.00000    90.00000  Step:          79  Bead:       0 positions{angstrom}  cell{angstrom}
       O -3.15512e+00  1.06028e+00  3.48195e-01
       H -2.56656e+00  2.51873e-01  5.38959e-01
       H -2.62544e+00  1.88759e+00  5.14229e-01
       H -4.11155e+00  1.10085e+00  1.05411e-01
4
# CELL(abcABC): 1000.00000  1000.00000  1000.00000    90.00000    90.00000    90.00000  Step:          80  Bead:       0 positions{angstrom}  cell{angstrom}
       O -3.15428e+00  1.05971e+00  3.46619e-01
       H -2.57263e+00  2.58481e-01  5.39590e-01
       H -2.62909e+00  1.88070e+00  5.16945e-01
       H -4.11518e+00  1.11016e+00  1.27085e-01
4
# CELL(abcABC): 1000.00000  1000.00000  1000.00000    90.00000    90.00000    90.00000  Step:          81  Bead:       0 positions{angstrom}  cell{angstrom}
       O -3.15330e+00  1.05899e+00  3.45200e-01
       H -2.57921e+00  2.69431e-01  5.38765e-01
       H -2.63419e+00  1.87319e+00  5.19534e-01
       H -4.11907e+00  1.11818e+00  1.47851e-01
4
# CELL(abcABC): 1000.00000  1000.00000  1000.00000    90.00000    90.00000    90.00000  Step:          82  Bead:       0 positions{angstrom}  cell{angstrom}
       O -3.15219e+00  1.05841e+00  3.43766e-01
       H -2.58698e+00  2.82173e-01  5.38066e-01
       H -2.63928e+00  1.86277e+00  5.21822e-01
       H -4.12376e+00  1.12498e+00  1.69029e-01
4
# CELL(abcABC): 1000.00000  1000.00000  1000.00000    90.00000    90.00000    90.00000  Step:          83  Bead:       0 positions{angstrom}  cell{angstrom}
       O -3.15110e+00  1.05781e+00  3.42390e-01
       H -2.59565e+00  2.96306e-01  5.37423e-01
       H -2.64407e+00  1.85211e+00  5.24011e-01
       H -4.12755e+00  1.13112e+00  1.89317e-01
4
# CELL(abcABC): 1000.00000  1000.00000  1000.00000    90.00000    90.00000    90.00000  Step:          84  Bead:       0 positions{angstrom}  cell{angstrom}
       O -3.15010e+00  1.05728e+00  3.41076e-01
       H -2.60304e+00  3.08934e-01  5.35736e-01
       H -2.64892e+00  1.84220e+00  5.26127e-01
       H -4.13128e+00  1.13683e+00  2.09745e-01
4
# CELL(abcABC): 1000.00000  1000.00000  1000.00000    90.00000    90.00000    90.00000  Step:          85  Bead:       0 positions{angstrom}  cell{angstrom}