11115
# CELL(abcABC):   47.66706    47.66706    47.66706    90.00000    90.00000    90.00000  Step:       10000  Bead:       0 positions{angstrom}  cell{angstrom}
       C  7.43184e+00  3.41676e+00  7.89710e+00
       H  6.59321e+00  4.14909e+00  7.77895e+00
       H  8.37377e+00  3.81142e+00  7.56518e+00
       H  7.60344e+00  3.03631e+00  8.94085e+00
       C  7.14864e+00  2.23294e+00  7.07829e+00
       O  6.05000e+00  2.05470e+00  6.55780e+00
       N  8.14120e+00  1.36588e+00  6.96233e+00
       H  9.02422e+00  1.62530e+00  7.43843e+00
       C  8.14222e+00  1.20978e-01  6.10513e+00
       H  7.28209e+00  2.74104e-01  5.49534e+00
       C  9.33070e+00  1.49147e-01  5.18206e+00
       H  1.02190e+01  2.61679e-03  5.76306e+00
       H  9.39438e+00  1.17442e+00  4.76142e+00
       C  9.32630e+00 -7.67249e-01  4.02507e+00
       O  1.03939e+01 -1.34203e+00  3.66939e+00
       O  8.21009e+00 -1.01703e+00  3.52729e+00
       H  8.24933e+00 -1.63584e+00  2.65816e+00
       C  8.08810e+00 -1.25221e+00  6.81509e+00
       O  8.28150e+00 -2.29005e+00  6.16396e+00
       N  8.01196e+00 -1.25117e+00  8.14759e+00
       H  7.96356e+00 -2.08850e+00  8.64300e+00
       H  7.81708e+00 -4.00722e-01  8.55795e+00
       O -1.81879e+01 -1.46841e+01 -7.36134e+00
       H -1.73864e+01 -1.42013e+01 -7.13952e+00
       H -1.81298e+01 -1.54480e+01 -6.69949e+00
       O -3.45948e+01 -1.59204e+01 -3.50299e+01
       H -3.45140e+01 -1.56882e+01 -3.41057e+01
       H -3.54123e+01 -1.62021e+01 -3.51663e+01
       O -1.44059e+01 -1.24368e+01 -3.27734e-02
       H -1.42323e+01 -1.30247e+01 -8.12016e-01
       H -1.43408e+01 -1.15088e+01 -4.07823e-01
       O -1.94539e+01 -3.16509e+01 -1.25837e+01
       H -1.94065e+01 -3.24811e+01 -1.31086e+01
       H -2.03585e+01 -3.12554e+01 -1.27874e+01
       O -2.58322e+01 -2.12512e+01 -5.36505e+00
       H -2.57047e+01 -2.21927e+01 -5.22775e+00
       H -2.49806e+01 -2.10673e+01 -5.69203e+00
       O -2.28167e+01 -2.64402e+01 -1.48169e+01
       H -2.32426e+01 -2.61730e+01 -1.56835e+01
       H -2.30069e+01 -2.56380e+01 -1.42200e+01
       O -2.75229e+01 -2.41021e+01 -1.64723e+01
       H -2.78775e+01 -2.33471e+01 -1.59195e+01
       H -2.65600e+01 -2.38710e+01 -1.64917e+01
       O -2.20355e+01 -1.53224e+01 -1.82864e+01
       H -2.15672e+01 -1.46626e+01 -1.78378e+01
       H -2.21877e+01 -1.49167e+01 -1.91513e+01
       O -1.53164e+01 -3.06551e+01 -2.46810e+01
       H -1.61350e+01 -3.06490e+01 -2.42255e+01
       H -1.54972e+01 -2.98534e+01 -2.52124e+01
       O -3.00573e+00 -2.70172e+01 -7.53528e+00
       H -2.19180e+00 -2.65235e+01 -7.37233e+00
       H -3.63159e+00 -2.62819e+01 -7.76570e+00
       O -1.76804e+01 -8.95358e+00 -2.47662e+01
       H -1.83399e+01 -8.77677e+00 -2.41112e+01
       H -1.68368e+01 -8.79548e+00 -2.42974e+01
       O -5.59649e+00  1.04276e+01 -4.87655e+00
       H -4.96865e+00  9.80058e+00 -5.25239e+00
       H -6.44370e+00  9.91790e+00 -4.82982e+00
       O -1.65429e+01 -2.24916e+01 -2.38248e+01
       H -1.63640e+01 -2.33095e+01 -2.34444e+01
       H -1.57957e+01 -2.20321e+01 -2.35663e+01
       O -2.07959e+01 -6.50677e+00 -1.19878e+01
       H -2.10383e+01 -7.35241e+00 -1.15400e+01
       H -1.99043e+01 -6.81999e+00 -1.21663e+01
       O -2.97159e+01 -3.12772e+01 -3.48441e+01
       H -2.96386e+01 -3.11758e+01 -3.57830e+01
       H -2.88081e+01 -3.15811e+01 -3.45626e+01
       O -8.87729e+00 -1.81695e+01 -1.60492e+01
       H -9.19873e+00 -1.72502e+01 -1.62018e+01
       H -9.61616e+00 -1.84354e+01 -1.54720e+01
       O -2.97582e+01 -2.97063e+01  6.99591e+00
       H -2.94172e+01 -2.88280e+01  7.12763e+00
       H -2.90739e+01 -3.03469e+01  7.34135e+00
       O -1.53128e+01 -8.64643e+00 -2.32293e+01
       H -1.45845e+01 -9.12877e+00 -2.27851e+01
       H -1.58958e+01 -8.43404e+00 -2.24698e+01
       O -2.12790e+01 -1.62691e+01  8.96328e+00
       H -2.16233e+01 -1.67630e+01  8.16590e+00
       H -2.19017e+01 -1.64541e+01  9.72479e+00
       O -2.34797e+01  7.05098e+00 -3.13295e+01
       H -2.42849e+01  7.57965e+00 -3.11472e+01
       H -2.31522e+01  7.40787e+00 -3.21777e+01
       O -6.57852e+00 -3.06547e+01 -1.11373e+01
       H -6.01851e+00 -3.15023e+01 -1.09236e+01
       H -7.46512e+00 -3.10311e+01 -1.11192e+01
       O -3.98244e+01 -3.68228e+00 -2.28604e+01
       H -3.91607e+01 -3.33957e+00 -2.34742e+01
       H -4.05293e+01 -3.02434e+00 -2.30706e+01
       O -3.57192e+00 -4.87524e+00 -1.71117e+01
       H -4.29947e+00 -4.57493e+00 -1.76016e+01
       H -2.78908e+00 -4.82871e+00 -1.77568e+01
       O -2.84300e+01 -1.48708e+01 -1.52735e+01
       H -2.77126e+01 -1.53646e+01 -1.56631e+01
       H -2.83388e+01 -1.47977e+01 -1.43024e+01
       O -1.16853e+01 -3.69004e+01 -3.28330e+01
       H -1.11874e+01 -3.62606e+01 -3.33715e+01
       H -1.25744e+01 -3.64388e+01 -3.28074e+01
       O -1.59605e+01 -8.87143e+00 -2.04128e+01
       H -1.67263e+01 -9.16988e+00 -1.98768e+01
       H -1.58978e+01 -7.96038e+00 -2.00313e+01
       O -8.29506e+00  1.82676e+01 -3.01969e+00
       H -8.34439e+00  1.74456e+01 -3.60728e+00
       H -7.37333e+00  1.84879e+01 -3.17847e+00
       O -1.44089e+01 -6.39794e+00  2.56736e-01
       H -1.37037e+01 -6.87458e+00  7.51515e-01
       H -1.43992e+01 -5.56297e+00  7.04440e-01
       O -1.38000e+01 -1.33371e+01 -9.64324e+00
       H -1.36368e+01 -1.27473e+01 -8.88807e+00
       H -1.37715e+01 -1.41869e+01 -9.12631e+00
       O -1.02374e+01 -1.73513e+01 -9.04266e+00
       H -9.75657e+00 -1.74899e+01 -9.87099e+00
       H -1.05452e+01 -1.82846e+01 -8.88300e+00
       O  9.16999e+00  7.72728e+00 -4.06397e+01
       H  9.90399e+00  7.66783e+00 -4.13768e+01
       H  9.72287e+00  8.00917e+00 -3.98285e+01
       O  1.74905e+00 -2.80295e+01 -1.76431e+01
       H  2.40042e+00 -2.75854e+01 -1.82488e+01
       H  1.34284e+00 -2.86256e+01 -1.82949e+01
       O  3.20862e+00 -1.42100e+00 -2.35638e+00
       H  3.86507e+00 -7.39648e-01 -2.14461e+00
       H  2.56694e+00 -9.47024e-01 -2.92188e+00
       O -3.57941e+01 -1.40583e+01 -5.86564e+00
       H -3.61836e+01 -1.40633e+01 -6.75199e+00
       H -3.59098e+01 -1.49982e+01 -5.63223e+00
       O -1.10894e+01 -1.87181e+01 -1.42896e+01
       H -1.09449e+01 -1.79984e+01 -1.36833e+01
       H -1.19241e+01 -1.90145e+01 -1.39485e+01
       O -1.24518e+01 -1.80260e+01 -2.59766e+01
       H -1.33522e+01 -1.82409e+01 -2.56361e+01
       H -1.22696e+01 -1.87041e+01 -2.66158e+01
       O -1.21374e+01 -1.86703e+01  5.54413e+00
       H -1.18148e+01 -1.89909e+01  4.68192e+00
       H -1.28582e+01 -1.80574e+01  5.20739e+00
       O -1.88956e+01 -3.93575e+01 -1.08089e+01
       H -1.94336e+01 -3.92498e+01 -1.16427e+01
       H -1.94422e+01 -3.99111e+01 -1.02220e+01
       O -5.26754e+00 -7.10057e+00  5.96115e+00
       H -5.08405e+00 -7.97544e+00  5.56835e+00
       H -5.52427e+00 -7.43708e+00  6.80475e+00
       O  9.99430e+00 -2.81309e+00 -3.79615e+01
       H  1.05048e+01 -2.98832e+00 -3.71459e+01
       H  9.33324e+00 -3.52217e+00 -3.79252e+01
       O -6.42719e+00 -3.15105e+01 -2.08354e+01
       H -7.27440e+00 -3.11234e+01 -2.09193e+01
       H -6.64366e+00 -3.24829e+01 -2.06155e+01
       O -2.91091e+01 -1.48688e+01 -6.63953e+00
       H -2.93145e+01 -1.44101e+01 -7.52376e+00
       H -2.83596e+01 -1.44061e+01 -6.22150e+00
       O -2.91547e+00 -1.39269e+01 -2.11766e+01
       H -2.85913e+00 -1.29847e+01 -2.07032e+01
       H -3.89447e+00 -1.40100e+01 -2.10341e+01
       O -2.16659e+01 -5.62850e+01 -2.56178e+01
       H -2.23845e+01 -5.64841e+01 -2.61545e+01
       H -2.10085e+01 -5.64378e+01 -2.64065e+01
       O -1.72479e+01 -7.41504e+00 -3.73640e+01
       H -1.78450e+01 -7.50637e+00 -3.80982e+01
       H -1.65416e+01 -8.03902e+00 -3.75641e+01
       O -9.95740e+00  3.06301e-01 -3.49925e+01
       H -9.06771e+00  7.43847e-01 -3.48082e+01
       H -9.62159e+00 -6.21939e-01 -3.51364e+01
       O -4.40730e+01 -2.25528e+01 -1.02478e+01
       H -4.39654e+01 -2.16325e+01 -1.06308e+01
       H -4.37118e+01 -2.24765e+01 -9.32086e+00
       O -2.15609e+01 -8.47694e+00 -1.03529e+01
       H -2.21255e+01 -8.19597e+00 -9.61312e+00
       H -2.15076e+01 -9.45299e+00 -1.02464e+01
       O -2.11800e+01 -2.16198e+01 -2.02516e+01
       H -2.16437e+01 -2.10992e+01 -1.95704e+01
       H -2.17399e+01 -2.13603e+01 -2.10162e+01
       O  2.59434e+00 -5.32321e+00  2.26156e+00
       H  1.97964e+00 -5.11881e+00  2.93516e+00
       H  2.85333e+00 -4.37295e+00  2.09211e+00
       O -7.78447e-01  3.82817e+00  8.20286e+00
       H -7.05222e-01  3.47765e+00  7.33867e+00
       H -2.42597e-01  3.16522e+00  8.68642e+00
       O -3.20362e+00  3.37074e-01 -4.78238e+00
       H -3.17614e+00 -3.82995e-01 -5.43295e+00
       H -4.15626e+00  3.35071e-01 -4.60083e+00
       O -1.39818e+01 -1.13084e+01 -1.66398e+01
       H -1.48757e+01 -1.16626e+01 -1.65188e+01
       H -1.41595e+01 -1.08784e+01 -1.74977e+01
       O -1.05022e+01  9.66940e+00 -1.64635e+01
       H -1.01065e+01  8.84539e+00 -1.61175e+01
       H -9.65574e+00  1.01093e+01 -1.66071e+01
       O -1.21225e+01 -1.23135e+01 -6.27338e+00
       H -1.17619e+01 -1.18500e+01 -7.06231e+00
       H -1.27909e+01 -1.16363e+01 -5.95131e+00
       O -1.48564e+01 -3.27659e+01 -2.94200e+01
       H -1.46765e+01 -3.30868e+01 -3.03071e+01
       H -1.39770e+01 -3.25322e+01 -2.91107e+01
       O -1.85073e+01 -2.63588e+01 -8.73636e+00
       H -1.81277e+01 -2.62028e+01 -9.64549e+00
       H -1.77313e+01 -2.63552e+01 -8.16836e+00
       O -1.85927e+01 -3.91587e+01 -6.18177e+00
       H -1.78379e+01 -3.86479e+01 -5.85692e+00
       H -1.81948e+01 -4.00963e+01 -6.21314e+00
       O -2.55470e-01  1.58785e+00 -5.86786e+00
       H -1.03924e+00  1.48632e+00 -5.30159e+00
       H  3.36720e-02  2.46997e+00 -5.54085e+00
       O -7.46413e+00 -3.17383e+01 -2.64597e+01
       H -6.77960e+00 -3.15319e+01 -2.58296e+01
       H -8.02499e+00 -3.22358e+01 -2.58305e+01
       O  5.61520e+00  2.03804e+00 -2.61827e+01
       H  5.00645e+00  2.75345e+00 -2.58163e+01
       H  5.84644e+00  1.53498e+00 -2.53862e+01
       O -3.67094e+01 -2.07727e+01 -1.07691e+01
       H -3.59241e+01 -2.12209e+01 -1.03456e+01
       H -3.64931e+01 -2.06807e+01 -1.17033e+01
       O -1.53196e+01 -4.60192e+01 -1.86547e+01
       H -1.50405e+01 -4.63826e+01 -1.77609e+01
       H -1.53479e+01 -4.68305e+01 -1.91783e+01
       O -9.18250e+00 -2.21033e+01 -8.19047e+00
       H -8.91200e+00 -2.30290e+01 -8.12972e+00
       H -8.43808e+00 -2.16074e+01 -7.81047e+00
       O -2.73857e-01 -1.96803e+01 -2.15617e+01
       H -1.22393e+00 -1.95103e+01 -2.13471e+01
       H -3.17092e-01 -1.99128e+01 -2.24803e+01
       O -2.04054e+01 -3.52333e+01 -1.35135e+01
       H -2.10001e+01 -3.58029e+01 -1.29708e+01
       H -1.96425e+01 -3.51555e+01 -1.30158e+01
       O -3.61420e+01 -1.27146e+01 -1.68449e+01
       H -3.55166e+01 -1.31896e+01 -1.73576e+01
       H -3.54597e+01 -1.20908e+01 -1.64412e+01
       O -2.17753e+01 -1.80094e+01 -2.67415e+01
       H -2.15270e+01 -1.84099e+01 -2.76134e+01
       H -2.14265e+01 -1.86527e+01 -2.60850e+01
       O -2.35100e+01  1.37630e+00 -2.54325e+01
       H -2.32778e+01  9.32710e-01 -2.62527e+01
       H -2.40569e+01  2.08066e+00 -2.58128e+01
       O -2.43744e+01 -9.50990e+00 -1.26735e+01
       H -2.35779e+01 -9.88677e+00 -1.22968e+01
       H -2.43500e+01 -8.58459e+00 -1.24477e+01
       O -1.97341e+01 -2.80648e+01  1.07852e+01
       H -1.93723e+01 -2.78921e+01  9.88005e+00
       H -1.98418e+01 -2.72036e+01  1.11935e+01
       O  1.42182e+00 -1.20153e+01 -3.09112e+00
       H  1.53697e+00 -1.28908e+01 -3.59983e+00
       H  7.49164e-01 -1.21826e+01 -2.39912e+00
       O -1.82193e+01 -2.28801e+01 -3.41167e+01
       H -1.73119e+01 -2.27642e+01 -3.43747e+01
       H -1.81498e+01 -2.28463e+01 -3.31073e+01
       O -1.57403e+01 -2.36517e+01 -3.09683e+01
       H -1.49764e+01 -2.36277e+01 -3.03451e+01
       H -1.54452e+01 -2.43714e+01 -3.15645e+01
       O -2.65550e+01 -3.05798e+01  5.73717e+00
       H -2.63875e+01 -3.02029e+01  6.61012e+00
       H -2.73121e+01 -3.11327e+01  5.95169e+00
       O -2.90131e+01 -2.30162e+01 -3.43861e+01
       H -2.84892e+01 -2.37383e+01 -3.47815e+01
       H -2.98430e+01 -2.34255e+01 -3.41171e+01
       O -2.72367e+00 -1.72827e+01  1.42974e+01
       H -1.88111e+00 -1.77426e+01  1.40410e+01
       H -3.18883e+00 -1.79947e+01  1.46884e+01
       O -3.70130e+01 -1.22749e+01 -4.08499e-01
       H -3.66527e+01 -1.17141e+01 -1.08687e+00
       H -3.79560e+01 -1.23127e+01 -5.71036e-01
       O -1.58838e+01 -2.52081e+01 -3.44485e+00
       H -1.56060e+01 -2.58242e+01 -4.14553e+00
       H -1.63504e+01 -2.58031e+01 -2.80060e+00
       O -2.04250e+01 -2.33825e+01 -2.67758e+01
       H -2.12078e+01 -2.28621e+01 -2.64918e+01
       H -1.97195e+01 -2.28889e+01 -2.63463e+01
       O -4.49131e+00 -1.37749e+01 -1.75891e+01
       H -4.02054e+00 -1.43507e+01 -1.69348e+01
       H -5.34995e+00 -1.37333e+01 -1.72039e+01
       O -1.40225e+01 -1.55314e+01 -1.19068e+01
       H -1.32488e+01 -1.56413e+01 -1.13606e+01
       H -1.36598e+01 -1.47363e+01 -1.24313e+01
       O -3.00885e+01  1.38606e+01 -1.59290e+01
       H -2.99725e+01  1.47855e+01 -1.56364e+01
       H -3.00229e+01  1.38774e+01 -1.68652e+01
       O -6.79974e+00 -2.34653e+01 -2.04584e+01
       H -6.33632e+00 -2.30905e+01 -2.12644e+01
       H -6.49511e+00 -2.27319e+01 -1.99117e+01
       O -9.90997e+00 -2.40620e+01 -3.99828e+01
       H -1.02666e+01 -2.31863e+01 -4.00647e+01
       H -1.06964e+01 -2.45683e+01 -3.98337e+01
       O -1.20815e+01 -2.20818e+01 -1.70905e+01
       H -1.18068e+01 -2.23088e+01 -1.80042e+01
       H -1.21482e+01 -2.11426e+01 -1.72031e+01
       O -9.65632e+00  4.61483e+00 -1.95441e+01
       H -1.01333e+01  4.58135e+00 -2.03550e+01
       H -9.80767e+00  5.51680e+00 -1.92054e+01
       O -1.37272e+01 -2.39851e+01 -3.59113e+01
       H -1.43124e+01 -2.45822e+01 -3.63670e+01
       H -1.29957e+01 -2.46272e+01 -3.57154e+01
       O -4.28619e+01 -2.97245e+01 -1.56964e+01
       H -4.24210e+01 -3.04096e+01 -1.63027e+01
       H -4.37717e+01 -3.00620e+01 -1.56132e+01
       O -1.66240e+01 -2.12624e+01  9.43200e+00
       H -1.71891e+01 -2.05348e+01  9.02126e+00
       H -1.73422e+01 -2.18566e+01  9.64576e+00
       O -6.59874e-01  7.22346e-01 -1.27686e+00
       H -7.11966e-01  1.09351e+00 -3.33473e-01
       H -1.39634e+00  1.16325e+00 -1.76095e+00
       O -1.80002e+01 -2.83489e+01 -1.16525e+01
       H -1.76949e+01 -2.84765e+01 -1.25693e+01
       H -1.78195e+01 -2.73408e+01 -1.15592e+01
       O  7.60292e-01 -1.02796e+01  1.05566e+01
       H  1.55501e-01 -9.54103e+00  1.02986e+01
       H  1.36559e+00 -1.03589e+01  9.82922e+00
       O -5.38530e+00 -2.52637e+00 -1.03321e+01
       H -5.86478e+00 -1.71192e+00 -1.06511e+01
       H -4.40284e+00 -2.26353e+00 -1.03696e+01
       O  1.15223e+01  1.33759e+01 -6.03447e-01
       H  1.23404e+01  1.28723e+01 -5.17131e-01
       H  1.19474e+01  1.42696e+01 -5.93322e-01
       O -1.18201e+01 -3.71692e+00 -3.32961e+01
       H -1.14105e+01 -4.12697e+00 -3.25135e+01
       H -1.15982e+01 -2.74736e+00 -3.31058e+01
       O -7.03241e+00 -1.30951e+01 -2.99771e+01
       H -6.16084e+00 -1.30819e+01 -2.95707e+01
       H -7.47191e+00 -1.32438e+01 -2.92018e+01
       O -2.26868e+01 -1.29997e+01 -2.39852e+01
       H -2.18046e+01 -1.33916e+01 -2.40332e+01
       H -2.27516e+01 -1.23778e+01 -2.32549e+01
       O -1.86466e+01 -3.08996e+01 -3.38150e+01
       H -1.84128e+01 -3.07865e+01 -3.28448e+01
       H -1.96406e+01 -3.06724e+01 -3.37605e+01
       O -8.42335e+00 -1.42422e+00  4.07485e+00
       H -8.73124e+00 -1.00443e+00  4.88441e+00
       H -7.68708e+00 -1.82718e+00  4.42837e+00
       O -1.65809e+01 -2.34270e+01 -9.61437e+00
       H -1.60839e+01 -2.31229e+01 -1.04120e+01
       H -1.67154e+01 -2.25169e+01 -9.22047e+00
       O -1.46766e+00 -8.97407e+00 -1.71220e+01
       H -1.49379e+00 -9.97001e+00 -1.71647e+01
       H -2.13284e+00 -8.73061e+00 -1.77949e+01
       O -5.17490e+00 -1.39510e+01 -4.63102e+00
       H -5.61943e+00 -1.35551e+01 -3.88418e+00
       H -4.60346e+00 -1.32353e+01 -4.93573e+00
       O  1.91816e+01  1.74139e+01 -2.64260e+01
       H  1.96790e+01  1.78196e+01 -2.71068e+01
       H  1.98518e+01  1.69910e+01 -2.59172e+01
       O -2.14681e+01 -1.89068e+01 -8.29865e+00
       H -2.09293e+01 -1.96970e+01 -8.47215e+00
       H -2.09110e+01 -1.81535e+01 -8.56802e+00
       O -2.30097e+01 -3.62567e+01 -9.62570e+00
       H -2.36235e+01 -3.54698e+01 -9.69286e+00
       H -2.22152e+01 -3.57350e+01 -9.46229e+00
       O -1.10469e+01 -2.50947e+01 -1.14886e+01
       H -1.06189e+01 -2.46556e+01 -1.07423e+01
       H -1.19811e+01 -2.51798e+01 -1.11824e+01
       O -7.08253e+00 -2.73942e+01 -1.71396e+01
       H -6.11932e+00 -2.77742e+01 -1.70102e+01
       H -7.03832e+00 -2.72622e+01 -1.81193e+01
       O -2.18732e+01 -3.78755e+00 -2.00447e+01
       H -2.14958e+01 -3.21366e+00 -1.93174e+01
       H -2.27597e+01 -3.43492e+00 -2.01930e+01
       O -2.06032e+01 -2.84882e+01 -2.09077e+01
       H -2.10302e+01 -2.76945e+01 -2.05553e+01
       H -2.10364e+01 -2.84890e+01 -2.18390e+01
       O -1.29915e+01 -8.10454e+00 -4.81240e+00
       H -1.26377e+01 -8.46762e+00 -4.04276e+00
       H -1.21868e+01 -7.84249e+00 -5.31821e+00
       O -1.91086e+01 -4.87214e+01 -5.21187e+01
       H -1.96609e+01 -4.79229e+01 -5.23557e+01
       H -1.85323e+01 -4.86643e+01 -5.28835e+01
       O -1.41965e+01 -1.82027e+01 -1.25637e+01
       H -1.43666e+01 -1.72296e+01 -1.24224e+01
       H -1.45981e+01 -1.86857e+01 -1.18021e+01
       O -1.61656e+01 -3.53919e+01 -1.84569e+01
       H -1.64946e+01 -3.56406e+01 -1.76021e+01
       H -1.70016e+01 -3.52425e+01 -1.88826e+01
       O -1.64160e+01 -1.24339e+01 -1.32792e+01
       H -1.55273e+01 -1.28183e+01 -1.32507e+01
       H -1.64595e+01 -1.22681e+01 -1.23332e+01
       O -2.48446e+01 -1.85275e+01 -1.98551e+01
       H -2.41764e+01 -1.80717e+01 -2.04516e+01
       H -2.56971e+01 -1.79591e+01 -2.00026e+01
       O -1.05831e+01 -1.60825e+01 -1.23090e+00
       H -1.09555e+01 -1.54791e+01 -5.93472e-01
       H -1.12005e+01 -1.67957e+01 -1.12124e+00
       O -8.33003e+00 -2.67710e+01 -4.31746e+01
       H -7.96146e+00 -2.67355e+01 -4.22637e+01
       H -8.64382e+00 -2.58612e+01 -4.32526e+01
       O -4.12412e+00 -1.97023e+01 -1.67505e+01
       H -4.54536e+00 -2.02316e+01 -1.60292e+01
       H -3.70379e+00 -2.03091e+01 -1.73872e+01
       O -1.84583e+01 -1.76283e+01 -1.04221e+01
       H -1.76860e+01 -1.71842e+01 -1.02569e+01
       H -1.91101e+01 -1.71535e+01 -9.86995e+00
       O -2.62393e+01 -1.31414e+01 -2.34880e+01
       H -2.71538e+01 -1.32623e+01 -2.31769e+01
       H -2.57509e+01 -1.35701e+01 -2.27480e+01
       O -1.08250e+00 -2.15686e+00 -2.10928e+01
       H -1.47435e+00 -1.30906e+00 -2.14544e+01
       H -6.83382e-01 -1.79416e+00 -2.02514e+01
       O -7.17488e-01 -3.43846e+00  1.43765e+01
       H  2.12745e-01 -3.29077e+00  1.42764e+01
       H -9.28609e-01 -2.54659e+00  1.46010e+01
       O -1.90648e+01 -2.51885e+01  1.15434e+01
       H -1.87102e+01 -2.49013e+01  1.23990e+01
       H -1.99670e+01 -2.50448e+01  1.17951e+01
       O -2.47123e+01 -8.03153e+00 -1.81155e+00
       H -2.41057e+01 -8.32196e+00 -1.12527e+00
       H -2.42530e+01 -7.22714e+00 -2.16127e+00
       O -3.93017e+01 -1.39630e+01 -8.07963e+00
       H -3.84077e+01 -1.43458e+01 -8.06712e+00
       H -3.95390e+01 -1.44041e+01 -8.95408e+00
       O -2.06922e-01 -8.21640e+00 -1.25875e+00
       H -6.78177e-02 -7.74219e+00 -4.60693e-01
       H  3.48163e-01 -9.02660e+00 -1.12928e+00
       O -2.68029e+01 -1.35708e+01 -5.32753e+01
       H -2.60311e+01 -1.40284e+01 -5.27296e+01
       H -2.70439e+01 -1.29074e+01 -5.26135e+01
       O -1.37334e+01 -2.54349e+01 -1.55769e+01
       H -1.32387e+01 -2.46573e+01 -1.52482e+01
       H -1.29656e+01 -2.58953e+01 -1.59687e+01
       O -1.51655e+00 -1.05905e+01 -2.59245e+01
       H -2.37129e+00 -1.01595e+01 -2.62666e+01
       H -1.33923e+00 -9.75564e+00 -2.53810e+01
       O -5.94187e+01 -1.85245e+01 -1.23258e-01
       H -5.84510e+01 -1.87310e+01  4.93432e-02
       H -5.94387e+01 -1.88670e+01 -1.07881e+00
       O -3.54617e+00 -1.21266e+01 -1.65904e+00
       H -2.78466e+00 -1.26596e+01 -1.47562e+00
       H -3.14307e+00 -1.12679e+01 -1.61615e+00
       O -1.57357e+01 -1.24440e+01  2.49354e+01
       H -1.66009e+01 -1.21424e+01  2.53578e+01
       H -1.52029e+01 -1.23666e+01  2.56762e+01
       O -9.30829e+00 -3.66182e+01 -3.76370e+01
       H -9.69921e+00 -3.58265e+01 -3.79370e+01
       H -1.00183e+01 -3.70037e+01 -3.70877e+01
       O -1.13537e+01 -1.43807e+01 -1.19421e+01
       H -1.11233e+01 -1.34578e+01 -1.20691e+01
       H -1.10758e+01 -1.44934e+01 -1.10140e+01
       O -1.15461e+01 -1.13065e+01  1.05067e+01
       H -1.14479e+01 -1.21902e+01  1.00803e+01
       H -1.20676e+01 -1.07941e+01  9.75787e+00
       O -1.08966e+01 -4.49434e+00 -6.58875e+00
       H -1.15525e+01 -3.75716e+00 -6.43602e+00
       H -1.09823e+01 -4.76970e+00 -7.55646e+00
       O -3.51717e+01 -8.82545e+00 -3.79926e+00
       H -3.42566e+01 -8.57105e+00 -3.63809e+00
       H -3.55121e+01 -8.68221e+00 -2.85859e+00
       O -1.64994e+01 -2.07412e+01 -3.24558e+01
       H -1.73301e+01 -2.10173e+01 -3.19606e+01
       H -1.61712e+01 -2.15679e+01 -3.28934e+01
       O -1.08712e+01 -1.14201e+01  1.51493e+00
       H -1.00706e+01 -1.12578e+01  9.15945e-01
       H -1.05366e+01 -1.21067e+01  2.02382e+00
       O -1.45641e+01 -3.17328e+01 -3.23448e+00
       H -1.36657e+01 -3.20408e+01 -2.97022e+00
       H -1.43267e+01 -3.14576e+01 -4.13563e+00
       O -4.34133e+00 -4.45793e+01 -8.47649e+00
       H -5.17609e+00 -4.41958e+01 -8.39996e+00
       H -4.55590e+00 -4.55101e+01 -8.35676e+00
       O -5.21101e-01 -7.22953e+00  3.02022e+00
       H -8.30788e-01 -7.48497e+00  3.92203e+00
       H -4.26048e-01 -6.28469e+00  3.07356e+00
       O -2.56712e+01 -2.66766e+01 -1.90917e+00
       H -2.52743e+01 -2.74597e+01 -2.41295e+00
       H -2.64120e+01 -2.70082e+01 -1.34447e+00
       O  6.43940e+00  1.21931e+01 -1.58133e+00
       H  5.93444e+00  1.25647e+01 -8.29186e-01
       H  7.23464e+00  1.26753e+01 -1.60587e+00
       O -9.30658e+00 -2.92325e+01 -1.36641e+01
       H -9.85459e+00 -2.95199e+01 -1.28652e+01
       H -9.76679e+00 -2.83910e+01 -1.38465e+01
       O -2.21279e+01 -2.39371e+01 -9.40401e+00
       H -2.28824e+01 -2.44712e+01 -9.65000e+00
       H -2.22485e+01 -2.31588e+01 -9.99731e+00
       O -1.98383e+01 -2.52049e+01 -1.16752e+01
       H -1.96119e+01 -2.55750e+01 -1.07987e+01
       H -2.00321e+01 -2.59970e+01 -1.22600e+01
       O -1.72114e+00 -4.08445e+00  9.22288e-02
       H -1.56740e+00 -4.41056e+00 -8.02033e-01
       H -2.21863e+00 -4.82806e+00  5.07889e-01
       O -1.07653e+01 -1.59197e+01 -1.58876e+01
       H -1.07794e+01 -1.63588e+01 -1.50420e+01
       H -1.09246e+01 -1.49497e+01 -1.56298e+01
       O -1.62996e+01 -2.55765e+01 -1.38283e+01
       H -1.64628e+01 -2.64811e+01 -1.42164e+01
       H -1.53360e+01 -2.56086e+01 -1.36635e+01
       O  1.87170e+00 -1.24243e+01 -8.86784e+00
       H  1.76792e+00 -1.30103e+01 -8.10793e+00
       H  1.14505e+00 -1.17804e+01 -8.80997e+00
       O -1.06490e+01 -2.55359e+01 -1.60281e+01
       H -1.04183e+01 -2.62157e+01 -1.53854e+01
       H -9.95502e+00 -2.48128e+01 -1.59112e+01
       O -2.19730e+01 -1.39910e+01 -2.07267e+01
       H -2.17511e+01 -1.30601e+01 -2.05269e+01
       H -2.13242e+01 -1.42632e+01 -2.13514e+01
       O -2.69447e+01  1.47191e-01 -9.86288e+00
       H -2.62089e+01 -1.92815e-01 -1.04570e+01
       H -2.70363e+01  1.09503e+00 -1.00580e+01
       O -1.00061e+01 -3.40803e+00  1.16219e+00
       H -1.02446e+01 -4.14344e+00  5.66607e-01
       H -9.14629e+00 -3.09998e+00  7.56598e-01
       O -2.47123e+01 -2.15987e+00 -9.99781e+00
       H -2.55266e+01 -2.56934e+00 -1.01824e+01
       H -2.46720e+01 -1.45354e+00 -1.06875e+01
       O -1.25276e+00  3.65589e+00 -1.83402e+01
       H -2.06359e+00  4.10682e+00 -1.88113e+01
       H -1.74703e+00  3.18233e+00 -1.77025e+01
       O -2.10367e+01 -9.41216e+00 -2.23155e+00
       H -2.06773e+01 -8.56222e+00 -1.91566e+00
       H -2.16037e+01 -9.63638e+00 -1.44730e+00
       O -1.68392e+01 -2.29920e+01 -5.01711e+00
       H -1.66735e+01 -2.37094e+01 -4.39874e+00
       H -1.64010e+01 -2.33430e+01 -5.79777e+00
       O  5.04033e+00  7.14105e+00  7.77231e+00
       H  4.46160e+00  7.04110e+00  8.56886e+00
       H  5.64345e+00  7.80103e+00  8.09812e+00
       O -2.10693e+01 -1.68136e+01  7.83906e-01
       H -2.11594e+01 -1.70373e+01 -1.24745e-01
       H -2.12637e+01 -1.77409e+01  1.19041e+00
       O -5.81128e+00 -2.50079e+01 -3.49545e+01
       H -4.99253e+00 -2.53708e+01 -3.54056e+01
       H -5.44936e+00 -2.44064e+01 -3.43247e+01
       O -4.18017e+00 -6.27178e+00 -1.48031e+01
       H -4.04816e+00 -5.67459e+00 -1.56101e+01
       H -3.39723e+00 -6.17593e+00 -1.43178e+01
       O -1.45508e+00 -2.13021e+01  1.72012e+00
       H -2.03405e+00 -2.20870e+01  1.87871e+00
       H -2.15155e+00 -2.07374e+01  1.28521e+00
       O -2.37915e+01 -1.52260e+01 -1.29331e+01
       H -2.28927e+01 -1.48016e+01 -1.28774e+01
       H -2.43120e+01 -1.44383e+01 -1.28355e+01
       O -1.81123e+01 -1.09623e+01 -2.17513e+01
       H -1.83700e+01 -1.01762e+01 -2.21339e+01
       H -1.81671e+01 -1.07700e+01 -2.07888e+01
       O -2.03259e+01 -1.63410e+01 -9.00174e+00
       H -2.04259e+01 -1.58320e+01 -8.11523e+00
       H -2.10824e+01 -1.60064e+01 -9.47451e+00
       O -1.21750e+01 -1.92663e+01 -1.80423e+01
       H -1.27270e+01 -1.87506e+01 -1.85826e+01
       H -1.24982e+01 -1.90185e+01 -1.71711e+01
       O -2.26229e+01  5.16474e+00 -2.43096e+01
       H -2.20450e+01  4.56134e+00 -2.48944e+01
       H -2.34620e+01  4.69076e+00 -2.42071e+01
       O  6.22807e+00 -2.13292e+01 -2.22231e+01
       H  5.87565e+00 -2.06485e+01 -2.16725e+01
       H  5.83156e+00 -2.22125e+01 -2.19487e+01
       O -1.52962e+01 -3.28888e+01 -1.19295e+01
       H -1.57058e+01 -3.25363e+01 -1.11116e+01
       H -1.57129e+01 -3.37964e+01 -1.19586e+01
       O -2.23387e+01 -7.87293e+00  1.10505e+01
       H -2.18223e+01 -7.09869e+00  1.08002e+01
       H -2.31293e+01 -7.38548e+00  1.13282e+01
       O -2.48363e+01 -3.18210e+01 -1.92787e+01
       H -2.39625e+01 -3.19858e+01 -1.97516e+01
       H -2.45350e+01 -3.17824e+01 -1.83721e+01
       O -6.36841e+00 -1.85829e+01 -1.92902e+01
       H -5.56086e+00 -1.81688e+01 -1.89281e+01
       H -6.94103e+00 -1.78387e+01 -1.93487e+01
       O -4.00273e+01 -2.51785e+01 -2.51591e+01
       H -4.09200e+01 -2.55922e+01 -2.51142e+01
       H -3.95710e+01 -2.57897e+01 -2.56941e+01
       O -4.30952e+01 -1.99521e+01 -7.06807e+00
       H -4.21210e+01 -1.99544e+01 -7.14283e+00
       H -4.32728e+01 -2.09188e+01 -7.15873e+00
       O  5.75681e-01 -2.89508e+00  1.51576e+00
       H  1.13416e-01 -3.11144e+00  6.90558e-01
       H  1.29201e-01 -3.44749e+00  2.21038e+00
       O -1.01315e+01 -2.13237e+01 -4.63022e+01
       H -9.65571e+00 -2.05988e+01 -4.69250e+01
       H -9.27831e+00 -2.17555e+01 -4.59687e+01
       O -9.33569e+00 -2.23900e+01 -2.36950e+01
       H -8.66975e+00 -2.17585e+01 -2.34575e+01
       H -8.80468e+00 -2.32304e+01 -2.38928e+01
       O -9.97021e+00 -1.38812e+01  2.76198e+00
       H -9.01820e+00 -1.40729e+01  2.53720e+00
       H -9.95780e+00 -1.36737e+01  3.73319e+00
       O -4.69879e+01 -1.53364e+01 -8.06506e+00
       H -4.69234e+01 -1.51664e+01 -7.06001e+00
       H -4.68518e+01 -1.63285e+01 -8.10463e+00
       O -2.28857e+01 -1.26082e+01 -2.51423e-01
       H -2.30145e+01 -1.31574e+01  5.18665e-01
       H -2.20868e+01 -1.21822e+01  7.89468e-02
       O -2.51156e+01  1.94816e+01 -1.27618e+01
       H -2.55249e+01  1.99512e+01 -1.35740e+01
       H -2.57337e+01  1.95988e+01 -1.20451e+01
       O  7.37743e+00  3.04747e+00  1.73359e+00
       H  8.30505e+00  2.88838e+00  2.00575e+00
       H  7.01139e+00  3.00321e+00  2.59362e+00
       O -1.17790e+01 -2.09360e-01  1.78418e+00
       H -1.19536e+01 -5.31401e-01  9.20799e-01
       H -1.18696e+01 -1.06734e+00  2.23721e+00
       O -2.15822e+01 -1.36924e+01 -9.76995e+00
       H -2.21845e+01 -1.42135e+01 -9.17039e+00
       H -2.16670e+01 -1.28290e+01 -9.40295e+00
       O -4.62281e+01 -2.27861e+01  9.91760e+00
       H -4.61980e+01 -2.19058e+01  9.37682e+00
       H -4.62009e+01 -2.34002e+01  9.19696e+00
       O -1.80272e+01  9.08818e+00 -1.90691e+01
       H -1.84451e+01  9.82257e+00 -1.95689e+01
       H -1.71385e+01  9.11320e+00 -1.95040e+01
       O -1.68579e+01 -2.18029e+01 -2.89961e+01
       H -1.62245e+01 -2.24174e+01 -2.93997e+01
       H -1.63474e+01 -2.09862e+01 -2.89031e+01
       O -1.14195e+01 -1.94291e+01  2.90565e+00
       H -1.20560e+01 -1.93824e+01  2.16028e+00
       H -1.08619e+01 -2.00968e+01  2.48888e+00
       O -1.37546e+01 -1.49455e-01 -2.53974e+01
       H -1.45971e+01 -2.96209e-01 -2.58083e+01
       H -1.35428e+01 -1.04783e+00 -2.51154e+01
       O -1.37635e+01 -7.93370e+00 -1.22453e+01
       H -1.44938e+01 -7.46167e+00 -1.17308e+01
       H -1.31583e+01 -8.20894e+00 -1.15303e+01
       O -7.76256e+00 -1.51580e+01  1.71971e+00
       H -8.07440e+00 -1.51662e+01  7.73841e-01
       H -6.98440e+00 -1.56742e+01  1.66591e+00
       O -3.07738e+01  1.69669e-01 -2.25650e+01
       H -2.98745e+01  3.86505e-01 -2.23712e+01
       H -3.11583e+01  1.07358e+00 -2.26056e+01
       O -3.17928e+01 -2.54931e+01 -7.92326e+00
       H -3.16707e+01 -2.47298e+01 -8.47636e+00
       H -3.10868e+01 -2.61197e+01 -8.22568e+00
       O -2.05858e+01 -2.82294e+01 -1.00161e+01
       H -1.99085e+01 -2.76031e+01 -9.57895e+00
       H -1.99124e+01 -2.84635e+01 -1.07346e+01
       O -1.11139e+01 -1.61175e+01 -4.01179e+01
       H -1.08487e+01 -1.64461e+01 -4.10009e+01
       H -1.04295e+01 -1.65219e+01 -3.95626e+01
       O -1.79487e+01 -5.96157e+00 -6.22841e+00
       H -1.75258e+01 -6.80380e+00 -6.39835e+00
       H -1.89041e+01 -6.10446e+00 -6.47586e+00
       O -2.38699e+01 -2.38537e+01 -3.50614e+01
       H -2.42309e+01 -2.30258e+01 -3.45925e+01