4
# CELL(abcABC): 1000.00000  1000.00000  1000.00000    90.00000    90.00000    90.00000  Step:           0  Bead:       0 positions{angstrom}  cell{angstrom}
       O -3.14931e+00  1.07103e+00  3.55663e-01
       H -2.33173e+00  7.57679e-01 -9.41368e-02
       H -3.11869e+00  9.84169e-01  1.30243e+00
       H -3.94528e+00  1.32806e+00 -1.68223e-01
4
# CELL(abcABC): 1000.00000  1000.00000  1000.00000    90.00000    90.00000    90.00000  Step:           1  Bead:       0 positions{angstrom}  cell{angstrom}
       O -3.14757e+00  1.07129e+00  3.55005e-01
       H -2.34298e+00  7.51180e-01 -8.92875e-02
       H -3.11873e+00  9.83598e-01  1.30386e+00
       H -3.96157e+00  1.33101e+00 -1.64051e-01
4
# CELL(abcABC): 1000.00000  1000.00000  1000.00000    90.00000    90.00000    90.00000  Step:           2  Bead:       0 positions{angstrom}  cell{angstrom}
       O -3.14593e+00  1.07152e+00  3.54152e-01
       H -2.35647e+00  7.45880e-01 -8.33749e-02
       H -3.11756e+00  9.83229e-01  1.30556e+00
       H -3.97530e+00  1.33305e+00 -1.58133e-01
4
# CELL(abcABC): 1000.00000  1000.00000  1000.00000    90.00000    90.00000    90.00000  Step:           3  Bead:       0 positions{angstrom}  cell{angstrom}
       O -3.14438e+00  1.07182e+00  3.53108e-01
       H -2.37013e+00  7.39799e-01 -7.59811e-02
       H -3.11702e+00  9.84261e-01  1.30787e+00
       H -3.98672e+00  1.33324e+00 -1.51252e-01
4
# CELL(abcABC): 1000.00000  1000.00000  1000.00000    90.00000    90.00000    90.00000  Step:           4  Bead:       0 positions{angstrom}  cell{angstrom}
       O -3.14312e+00  1.07228e+00  3.52119e-01
       H -2.38319e+00  7.32169e-01 -7.09437e-02
       H -3.11624e+00  9.86387e-01  1.30933e+00
       H -3.99458e+00  1.33152e+00 -1.42064e-01
4
# CELL(abcABC): 1000.00000  1000.00000  1000.00000    90.00000    90.00000    90.00000  Step:           5  Bead:       0 positions{angstrom}  cell{angstrom}
       O -3.14210e+00  1.07277e+00  3.51232e-01
       H -2.39484e+00  7.23469e-01 -6.83024e-02
       H -3.11649e+00  9.90209e-01  1.31117e+00
       H -3.99879e+00  1.32857e+00 -1.32467e-01
4
# CELL(abcABC): 1000.00000  1000.00000  1000.00000    90.00000    90.00000    90.00000  Step:           6  Bead:       0 positions{angstrom}  cell{angstrom}
       O -3.14139e+00  1.07353e+00  3.50520e-01
       H -2.40321e+00  7.13313e-01 -6.93880e-02
       H -3.11772e+00  9.93028e-01  1.31111e+00
       H -4.00048e+00  1.32387e+00 -1.20016e-01
4
# CELL(abcABC): 1000.00000  1000.00000  1000.00000    90.00000    90.00000    90.00000  Step:           7  Bead:       0 positions{angstrom}  cell{angstrom}
       O -3.14115e+00  1.07439e+00  3.49792e-01
       H -2.40659e+00  7.01140e-01 -7.22016e-02
       H -3.11943e+00  9.96004e-01  1.31092e+00
       H -3.99928e+00  1.31936e+00 -1.05453e-01
4
# CELL(abcABC): 1000.00000  1000.00000  1000.00000    90.00000    90.00000    90.00000  Step:           8  Bead:       0 positions{angstrom}  cell{angstrom}
       O -3.14135e+00  1.07546e+00  3.49302e-01
       H -2.40590e+00  6.87082e-01 -7.84330e-02
       H -3.12037e+00  9.98458e-01  1.30918e+00
       H -3.99583e+00  1.31412e+00 -8.97032e-02
4
# CELL(abcABC): 1000.00000  1000.00000  1000.00000    90.00000    90.00000    90.00000  Step:           9  Bead:       0 positions{angstrom}  cell{angstrom}
       O -3.14183e+00  1.07674e+00  3.48839e-01
       H -2.40327e+00  6.70837e-01 -8.55932e-02
       H -3.12038e+00  1.00130e+00  1.30733e+00
       H -3.99073e+00  1.30711e+00 -7.33565e-02
4
# CELL(abcABC): 1000.00000  1000.00000  1000.00000    90.00000    90.00000    90.00000  Step:          10  Bead:       0 positions{angstrom}  cell{angstrom}
       O -3.14241e+00  1.07803e+00  3.48621e-01
       H -2.40004e+00  6.53984e-01 -9.46931e-02
       H -3.12024e+00  1.00493e+00  1.30428e+00
       H -3.98496e+00  1.29983e+00 -5.77321e-02
4
# CELL(abcABC): 1000.00000  1000.00000  1000.00000    90.00000    90.00000    90.00000  Step:          11  Bead:       0 positions{angstrom}  cell{angstrom}
       O -3.14290e+00  1.07934e+00  3.48622e-01
       H -2.39756e+00  6.38151e-01 -1.05339e-01
       H -3.12132e+00  1.00825e+00  1.30073e+00
       H -3.97850e+00  1.29160e+00 -4.35513e-02
4
# CELL(abcABC): 1000.00000  1000.00000  1000.00000    90.00000    90.00000    90.00000  Step:          12  Bead:       0 positions{angstrom}  cell{angstrom}
       O -3.14331e+00  1.08064e+00  3.48730e-01
       H -2.39603e+00  6.23318e-01 -1.15658e-01
       H -3.12234e+00  1.01020e+00  1.29660e+00
       H -3.97262e+00  1.28378e+00 -3.08267e-02
4
# CELL(abcABC): 1000.00000  1000.00000  1000.00000    90.00000    90.00000    90.00000  Step:          13  Bead:       0 positions{angstrom}  cell{angstrom}
       O -3.14342e+00  1.08185e+00  3.48807e-01
       H -2.39770e+00  6.11027e-01 -1.24281e-01
       H -3.12184e+00  1.01173e+00  1.29348e+00
       H -3.96961e+00  1.27544e+00 -2.02931e-02
4
# CELL(abcABC): 1000.00000  1000.00000  1000.00000    90.00000    90.00000    90.00000  Step:          14  Bead:       0 positions{angstrom}  cell{angstrom}
       O -3.14316e+00  1.08287e+00  3.48795e-01
       H -2.40188e+00  6.00946e-01 -1.30450e-01
       H -3.12054e+00  1.01351e+00  1.29178e+00
       H -3.97088e+00  1.26743e+00 -1.22411e-02
4
# CELL(abcABC): 1000.00000  1000.00000  1000.00000    90.00000    90.00000    90.00000  Step:          15  Bead:       0 positions{angstrom}  cell{angstrom}
       O -3.14236e+00  1.08361e+00  3.48485e-01
       H -2.41220e+00  5.93161e-01 -1.32060e-01
       H -3.11949e+00  1.01545e+00  1.29198e+00
       H -3.97437e+00  1.26159e+00 -5.90936e-03
4
# CELL(abcABC): 1000.00000  1000.00000  1000.00000    90.00000    90.00000    90.00000  Step:          16  Bead:       0 positions{angstrom}  cell{angstrom}
       O -3.14114e+00  1.08409e+00  3.48091e-01
       H -2.42538e+00  5.87730e-01 -1.31642e-01
       H -3.11825e+00  1.01814e+00  1.29391e+00
       H -3.98176e+00  1.25666e+00 -1.99796e-03
4
# CELL(abcABC): 1000.00000  1000.00000  1000.00000    90.00000    90.00000    90.00000  Step:          17  Bead:       0 positions{angstrom}  cell{angstrom}
       O -3.13945e+00  1.08441e+00  3.47626e-01
       H -2.44116e+00  5.85137e-01 -1.28927e-01
       H -3.11765e+00  1.02125e+00  1.29622e+00
       H -3.99343e+00  1.25107e+00  3.54799e-04
4
# CELL(abcABC): 1000.00000  1000.00000  1000.00000    90.00000    90.00000    90.00000  Step:          18  Bead:       0 positions{angstrom}  cell{angstrom}
       O -3.13746e+00  1.08454e+00  3.47124e-01
       H -2.46027e+00  5.85089e-01 -1.24539e-01
       H -3.11553e+00  1.02414e+00  1.29938e+00
       H -4.00792e+00  1.24624e+00  7.67001e-04
4
# CELL(abcABC): 1000.00000  1000.00000  1000.00000    90.00000    90.00000    90.00000  Step:          19  Bead:       0 positions{angstrom}  cell{angstrom}
       O -3.13550e+00  1.08469e+00  3.46627e-01
       H -2.47974e+00  5.85580e-01 -1.19149e-01
       H -3.11370e+00  1.02625e+00  1.30229e+00
       H -4.02143e+00  1.24128e+00  3.63807e-04
4
# CELL(abcABC): 1000.00000  1000.00000  1000.00000    90.00000    90.00000    90.00000  Step:          20  Bead:       0 positions{angstrom}  cell{angstrom}
       O -3.13366e+00  1.08496e+00  3.46285e-01
       H -2.49817e+00  5.85885e-01 -1.15794e-01
       H -3.11229e+00  1.02822e+00  1.30536e+00
       H -4.03373e+00  1.23471e+00 -6.42197e-04
4
# CELL(abcABC): 1000.00000  1000.00000  1000.00000    90.00000    90.00000    90.00000  Step:          21  Bead:       0 positions{angstrom}  cell{angstrom}
       O -3.13219e+00  1.08540e+00  3.46198e-01
       H -2.51437e+00  5.83727e-01 -1.15431e-01
       H -3.10862e+00  1.03050e+00  1.30883e+00
       H -4.04444e+00  1.22752e+00 -3.07702e-03
4
# CELL(abcABC): 1000.00000  1000.00000  1000.00000    90.00000    90.00000    90.00000  Step:          22  Bead:       0 positions{angstrom}  cell{angstrom}
       O -3.13124e+00  1.08602e+00  3.46455e-01
       H -2.52783e+00  5.77712e-01 -1.16802e-01
       H -3.10204e+00  1.03278e+00  1.30964e+00
       H -4.05262e+00  1.22150e+00 -6.60238e-03
4
# CELL(abcABC): 1000.00000  1000.00000  1000.00000    90.00000    90.00000    90.00000  Step:          23  Bead:       0 positions{angstrom}  cell{angstrom}
       O -3.13086e+00  1.08690e+00  3.47165e-01
       H -2.53671e+00  5.68725e-01 -1.21817e-01
       H -3.09368e+00  1.03528e+00  1.30967e+00
       H -4.05813e+00  1.21392e+00 -1.28976e-02
4
# CELL(abcABC): 1000.00000  1000.00000  1000.00000    90.00000    90.00000    90.00000  Step:          24  Bead:       0 positions{angstrom}  cell{angstrom}
       O -3.13106e+00  1.08795e+00  3.48106e-01
       H -2.54088e+00  5.55491e-01 -1.29712e-01
       H -3.08400e+00  1.03859e+00  1.30884e+00
       H -4.06058e+00  1.20721e+00 -1.91073e-02
4
# CELL(abcABC): 1000.00000  1000.00000  1000.00000    90.00000    90.00000    90.00000  Step:          25  Bead:       0 positions{angstrom}  cell{angstrom}
       O -3.13169e+00  1.08928e+00  3.49083e-01
       H -2.54207e+00  5.39025e-01 -1.38642e-01
       H -3.07381e+00  1.04098e+00  1.30728e+00
       H -4.05958e+00  1.20026e+00 -2.41331e-02
4
# CELL(abcABC): 1000.00000  1000.00000  1000.00000    90.00000    90.00000    90.00000  Step:          26  Bead:       0 positions{angstrom}  cell{angstrom}
       O -3.13267e+00  1.09078e+00  3.50043e-01
       H -2.54169e+00  5.21065e-01 -1.48828e-01
       H -3.06258e+00  1.04277e+00  1.30492e+00
       H -4.05558e+00  1.19258e+00 -2.68184e-02
4
# CELL(abcABC): 1000.00000  1000.00000  1000.00000    90.00000    90.00000    90.00000  Step:          27  Bead:       0 positions{angstrom}  cell{angstrom}
       O -3.13399e+00  1.09226e+00  3.50918e-01
       H -2.54143e+00  5.04762e-01 -1.58887e-01
       H -3.05073e+00  1.04342e+00  1.30198e+00
       H -4.04675e+00  1.18481e+00 -2.76993e-02
4
# CELL(abcABC): 1000.00000  1000.00000  1000.00000    90.00000    90.00000    90.00000  Step:          28  Bead:       0 positions{angstrom}  cell{angstrom}
       O -3.13536e+00  1.09362e+00  3.51522e-01
       H -2.54337e+00  4.88985e-01 -1.67187e-01
       H -3.03785e+00  1.04390e+00  1.29947e+00
       H -4.03598e+00  1.17838e+00 -2.64775e-02
4
# CELL(abcABC): 1000.00000  1000.00000  1000.00000    90.00000    90.00000    90.00000  Step:          29  Bead:       0 positions{angstrom}  cell{angstrom}
       O -3.13673e+00  1.09475e+00  3.51874e-01
       H -2.54665e+00  4.76628e-01 -1.74184e-01
       H -3.02566e+00  1.04411e+00  1.29738e+00
       H -4.02313e+00  1.17260e+00 -2.29855e-02
4
# CELL(abcABC): 1000.00000  1000.00000  1000.00000    90.00000    90.00000    90.00000  Step:          30  Bead:       0 positions{angstrom}  cell{angstrom}
       O -3.13795e+00  1.09550e+00  3.51898e-01
       H -2.55211e+00  4.69113e-01 -1.77164e-01
       H -3.01368e+00  1.04411e+00  1.29630e+00
       H -4.01023e+00  1.16822e+00 -1.93079e-02
4
# CELL(abcABC): 1000.00000  1000.00000  1000.00000    90.00000    90.00000    90.00000  Step:          31  Bead:       0 positions{angstrom}  cell{angstrom}
       O -3.13905e+00  1.09582e+00  3.51710e-01
       H -2.55873e+00  4.65904e-01 -1.76537e-01
       H -3.00126e+00  1.04521e+00  1.29511e+00
       H -3.99858e+00  1.16535e+00 -1.57472e-02
4
# CELL(abcABC): 1000.00000  1000.00000  1000.00000    90.00000    90.00000    90.00000  Step:          32  Bead:       0 positions{angstrom}  cell{angstrom}
       O -3.13978e+00  1.09589e+00  3.51114e-01
       H -2.56883e+00  4.64896e-01 -1.72019e-01
       H -2.98869e+00  1.04768e+00  1.29555e+00
       H -3.98949e+00  1.16279e+00 -1.12481e-02
4
# CELL(abcABC): 1000.00000  1000.00000  1000.00000    90.00000    90.00000    90.00000  Step:          33  Bead:       0 positions{angstrom}  cell{angstrom}
       O -3.14008e+00  1.09576e+00  3.50261e-01
       H -2.58163e+00  4.66776e-01 -1.63462e-01
       H -2.97638e+00  1.04940e+00  1.29654e+00
       H -3.98424e+00  1.16113e+00 -7.26817e-03
4
# CELL(abcABC): 1000.00000  1000.00000  1000.00000    90.00000    90.00000    90.00000  Step:          34  Bead:       0 positions{angstrom}  cell{angstrom}
       O -3.13981e+00  1.09541e+00  3.49462e-01
       H -2.59533e+00  4.71106e-01 -1.53130e-01
       H -2.96674e+00  1.05099e+00  1.29748e+00
       H -3.98440e+00  1.16080e+00 -5.84918e-03
4
# CELL(abcABC): 1000.00000  1000.00000  1000.00000    90.00000    90.00000    90.00000  Step:          35  Bead:       0 positions{angstrom}  cell{angstrom}
       O -3.13920e+00  1.09484e+00  3.48722e-01
       H -2.60756e+00  4.76685e-01 -1.42768e-01
       H -2.95938e+00  1.05395e+00  1.29832e+00
       H -3.98921e+00  1.16135e+00 -5.29855e-03
4
# CELL(abcABC): 1000.00000  1000.00000  1000.00000    90.00000    90.00000    90.00000  Step:          36  Bead:       0 positions{angstrom}  cell{angstrom}
       O -3.13835e+00  1.09409e+00  3.48147e-01
       H -2.61854e+00  4.82126e-01 -1.33438e-01
       H -2.95308e+00  1.05872e+00  1.29723e+00
       H -3.99804e+00  1.16304e+00 -4.41601e-03
4
# CELL(abcABC): 1000.00000  1000.00000  1000.00000    90.00000    90.00000    90.00000  Step:          37  Bead:       0 positions{angstrom}  cell{angstrom}
       O -3.13744e+00  1.09340e+00  3.47667e-01
       H -2.62660e+00  4.86697e-01 -1.24142e-01
       H -2.94745e+00  1.06345e+00  1.29450e+00
       H -4.01013e+00  1.16465e+00 -3.36686e-03
4
# CELL(abcABC): 1000.00000  1000.00000  1000.00000    90.00000    90.00000    90.00000  Step:          38  Bead:       0 positions{angstrom}  cell{angstrom}
       O -3.13640e+00  1.09282e+00  3.47589e-01
       H -2.63222e+00  4.87919e-01 -1.19011e-01
       H -2.94281e+00  1.06761e+00  1.29052e+00
       H -4.02557e+00  1.16848e+00 -3.26694e-03
4
# CELL(abcABC): 1000.00000  1000.00000  1000.00000    90.00000    90.00000    90.00000  Step:          39  Bead:       0 positions{angstrom}  cell{angstrom}
       O -3.13572e+00  1.09254e+00  3.47624e-01
       H -2.63299e+00  4.84539e-01 -1.17046e-01
       H -2.93862e+00  1.07109e+00  1.28687e+00
       H -4.03976e+00  1.17281e+00 -2.14732e-03
4
# CELL(abcABC): 1000.00000  1000.00000  1000.00000    90.00000    90.00000    90.00000  Step:          40  Bead:       0 positions{angstrom}  cell{angstrom}
       O -3.13537e+00  1.09241e+00  3.47635e-01
       H -2.62972e+00  4.77311e-01 -1.17787e-01
       H -2.93483e+00  1.07515e+00  1.28472e+00
       H -4.05250e+00  1.17812e+00  5.77190e-04
4
# CELL(abcABC): 1000.00000  1000.00000  1000.00000    90.00000    90.00000    90.00000  Step:          41  Bead:       0 positions{angstrom}  cell{angstrom}
       O -3.13531e+00  1.09240e+00  3.47676e-01
       H -2.62346e+00  4.67593e-01 -1.22031e-01
       H -2.93097e+00  1.08000e+00  1.28301e+00
       H -4.06355e+00  1.18318e+00  5.87825e-03
4
# CELL(abcABC): 1000.00000  1000.00000  1000.00000    90.00000    90.00000    90.00000  Step:          42  Bead:       0 positions{angstrom}  cell{angstrom}
       O -3.13564e+00  1.09259e+00  3.47766e-01
       H -2.61360e+00  4.54096e-01 -1.28694e-01
       H -2.92727e+00  1.08527e+00  1.28198e+00
       H -4.07181e+00  1.18823e+00  1.21422e-02
4
# CELL(abcABC): 1000.00000  1000.00000  1000.00000    90.00000    90.00000    90.00000  Step:          43  Bead:       0 positions{angstrom}  cell{angstrom}
       O -3.13618e+00  1.09271e+00  3.47776e-01
       H -2.60336e+00  4.41248e-01 -1.36474e-01
       H -2.92379e+00  1.09224e+00  1.28157e+00
       H -4.07700e+00  1.19223e+00  2.01631e-02
4
# CELL(abcABC): 1000.00000  1000.00000  1000.00000    90.00000    90.00000    90.00000  Step:          44  Bead:       0 positions{angstrom}  cell{angstrom}
       O -3.13683e+00  1.09276e+00  3.47627e-01
       H -2.59361e+00  4.29138e-01 -1.44444e-01
       H -2.92052e+00  1.09912e+00  1.28104e+00
       H -4.07961e+00  1.19670e+00  3.10349e-02
4
# CELL(abcABC): 1000.00000  1000.00000  1000.00000    90.00000    90.00000    90.00000  Step:          45  Bead:       0 positions{angstrom}  cell{angstrom}
       O -3.13746e+00  1.09265e+00  3.47332e-01
       H -2.58625e+00  4.19897e-01 -1.51646e-01
       H -2.91682e+00  1.10566e+00  1.27997e+00
       H -4.08074e+00  1.20111e+00  4.39889e-02
4
# CELL(abcABC): 1000.00000  1000.00000  1000.00000    90.00000    90.00000    90.00000  Step:          46  Bead:       0 positions{angstrom}  cell{angstrom}
       O -3.13813e+00  1.09234e+00  3.46842e-01
       H -2.58161e+00  4.14934e-01 -1.57162e-01
       H -2.91344e+00  1.11157e+00  1.27861e+00
       H -4.07812e+00  1.20517e+00  5.86470e-02
4
# CELL(abcABC): 1000.00000  1000.00000  1000.00000    90.00000    90.00000    90.00000  Step:          47  Bead:       0 positions{angstrom}  cell{angstrom}
       O -3.13872e+00  1.09165e+00  3.46251e-01
       H -2.57998e+00  4.13862e-01 -1.59938e-01
       H -2.91005e+00  1.11788e+00  1.27648e+00
       H -4.07374e+00  1.21087e+00  7.29334e-02
4
# CELL(abcABC): 1000.00000  1000.00000  1000.00000    90.00000    90.00000    90.00000  Step:          48  Bead:       0 positions{angstrom}  cell{angstrom}
       O -3.13919e+00  1.09078e+00  3.45444e-01
       H -2.58106e+00  4.16003e-01 -1.59848e-01
       H -2.90675e+00  1.12492e+00  1.27366e+00
       H -4.06846e+00  1.21555e+00  8.84672e-02
4
# CELL(abcABC): 1000.00000  1000.00000  1000.00000    90.00000    90.00000    90.00000  Step:          49  Bead:       0 positions{angstrom}  cell{angstrom}
       O -3.13957e+00  1.08965e+00  3.44351e-01
       H -2.58515e+00  4.21658e-01 -1.56788e-01
       H -2.90224e+00  1.13178e+00  1.27102e+00
       H -4.06289e+00  1.22099e+00  1.05399e-01
4
# CELL(abcABC): 1000.00000  1000.00000  1000.00000    90.00000    90.00000    90.00000  Step:          50  Bead:       0 positions{angstrom}  cell{angstrom}
       O -3.13961e+00  1.08836e+00  3.43242e-01
       H -2.59226e+00  4.30781e-01 -1.52108e-01
       H -2.89942e+00  1.13799e+00  1.26845e+00
       H -4.05794e+00  1.22603e+00  1.20886e-01
4
# CELL(abcABC): 1000.00000  1000.00000  1000.00000    90.00000    90.00000    90.00000  Step:          51  Bead:       0 positions{angstrom}  cell{angstrom}
       O -3.13950e+00  1.08691e+00  3.42107e-01
       H -2.60177e+00  4.41832e-01 -1.46719e-01
       H -2.89683e+00  1.14455e+00  1.26565e+00
       H -4.05289e+00  1.23141e+00  1.36314e-01
4
# CELL(abcABC): 1000.00000  1000.00000  1000.00000    90.00000    90.00000    90.00000  Step:          52  Bead:       0 positions{angstrom}  cell{angstrom}
       O -3.13921e+00  1.08549e+00  3.41129e-01
       H -2.61277e+00  4.53664e-01 -1.41174e-01
       H -2.89437e+00  1.15057e+00  1.26161e+00
       H -4.04892e+00  1.23619e+00  1.50336e-01
4
# CELL(abcABC): 1000.00000  1000.00000  1000.00000    90.00000    90.00000    90.00000  Step:          53  Bead:       0 positions{angstrom}  cell{angstrom}
       O -3.13883e+00  1.08407e+00  3.40246e-01
       H -2.62308e+00  4.65417e-01 -1.37596e-01
       H -2.89197e+00  1.15803e+00  1.25827e+00
       H -4.04693e+00  1.23952e+00  1.64110e-01
4
# CELL(abcABC): 1000.00000  1000.00000  1000.00000    90.00000    90.00000    90.00000  Step:          54  Bead:       0 positions{angstrom}  cell{angstrom}
       O -3.13840e+00  1.08288e+00  3.39308e-01
       H -2.63209e+00  4.74048e-01 -1.35183e-01
       H -2.88958e+00  1.16621e+00  1.25588e+00
       H -4.04714e+00  1.24161e+00  1.78983e-01
4
# CELL(abcABC): 1000.00000  1000.00000  1000.00000    90.00000    90.00000    90.00000  Step:          55  Bead:       0 positions{angstrom}  cell{angstrom}
       O -3.13806e+00  1.08195e+00  3.38609e-01
       H -2.63916e+00  4.79158e-01 -1.35258e-01
       H -2.88653e+00  1.17446e+00  1.25435e+00
       H -4.04863e+00  1.24300e+00  1.91673e-01
4
# CELL(abcABC): 1000.00000  1000.00000  1000.00000    90.00000    90.00000    90.00000  Step:          56  Bead:       0 positions{angstrom}  cell{angstrom}
       O -3.13788e+00  1.08130e+00  3.38235e-01
       H -2.64076e+00  4.79923e-01 -1.38636e-01
       H -2.88300e+00  1.18233e+00  1.25179e+00
       H -4.05338e+00  1.24466e+00  2.03557e-01
4
# CELL(abcABC): 1000.00000  1000.00000  1000.00000    90.00000    90.00000    90.00000  Step:          57  Bead:       0 positions{angstrom}  cell{angstrom}
       O -3.13783e+00  1.08093e+00  3.38132e-01
       H -2.63742e+00  4.76643e-01 -1.45335e-01
       H -2.87973e+00  1.18955e+00  1.25033e+00
       H -4.06071e+00  1.24649e+00  2.13353e-01
4
# CELL(abcABC): 1000.00000  1000.00000  1000.00000    90.00000    90.00000    90.00000  Step:          58  Bead:       0 positions{angstrom}  cell{angstrom}
       O -3.13802e+00  1.08090e+00  3.38310e-01
       H -2.63020e+00  4.68834e-01 -1.55286e-01
       H -2.87517e+00  1.19646e+00  1.24959e+00
       H -4.06954e+00  1.24789e+00  2.21208e-01
4
# CELL(abcABC): 1000.00000  1000.00000  1000.00000    90.00000    90.00000    90.00000  Step:          59  Bead:       0 positions{angstrom}  cell{angstrom}
       O -3.13841e+00  1.08103e+00  3.38579e-01
       H -2.62045e+00  4.58910e-01 -1.66913e-01
       H -2.86925e+00  1.20348e+00  1.25044e+00
       H -4.07907e+00  1.24874e+00  2.27721e-01
4
# CELL(abcABC): 1000.00000  1000.00000  1000.00000    90.00000    90.00000    90.00000  Step:          60  Bead:       0 positions{angstrom}  cell{angstrom}
       O -3.13895e+00  1.08133e+00  3.39030e-01
       H -2.61150e+00  4.48142e-01 -1.78753e-01
       H -2.86151e+00  1.20938e+00  1.24937e+00
       H -4.08722e+00  1.24895e+00  2.33473e-01
4
# CELL(abcABC): 1000.00000  1000.00000  1000.00000    90.00000    90.00000    90.00000  Step:          61  Bead:       0 positions{angstrom}  cell{angstrom}
       O -3.13966e+00  1.08169e+00  3.39569e-01
       H -2.60268e+00  4.37959e-01 -1.89821e-01
       H -2.85145e+00  1.21445e+00  1.24650e+00
       H -4.09474e+00  1.24829e+00  2.38846e-01
4
# CELL(abcABC): 1000.00000  1000.00000  1000.00000    90.00000    90.00000    90.00000  Step:          62  Bead:       0 positions{angstrom}  cell{angstrom}
       O -3.14034e+00  1.08210e+00  3.40232e-01
       H -2.59676e+00  4.29398e-01 -1.99216e-01
       H -2.84159e+00  1.21833e+00  1.24255e+00
       H -4.09966e+00  1.24648e+00  2.41683e-01
4
# CELL(abcABC): 1000.00000  1000.00000  1000.00000    90.00000    90.00000    90.00000  Step:          63  Bead:       0 positions{angstrom}  cell{angstrom}
       O -3.14098e+00  1.08230e+00  3.40668e-01
       H -2.59342e+00  4.25263e-01 -2.05226e-01
       H -2.83118e+00  1.22074e+00  1.23794e+00
       H -4.10339e+00  1.24499e+00  2.45384e-01
4
# CELL(abcABC): 1000.00000  1000.00000  1000.00000    90.00000    90.00000    90.00000  Step:          64  Bead:       0 positions{angstrom}  cell{angstrom}
       O -3.14161e+00  1.08236e+00  3.40951e-01
       H -2.59222e+00  4.25446e-01 -2.06944e-01
       H -2.81969e+00  1.22219e+00  1.23300e+00
       H -4.10595e+00  1.24241e+00  2.47550e-01
4
# CELL(abcABC): 1000.00000  1000.00000  1000.00000    90.00000    90.00000    90.00000  Step:          65  Bead:       0 positions{angstrom}  cell{angstrom}
       O -3.14222e+00  1.08221e+00  3.41128e-01
       H -2.59532e+00  4.30485e-01 -2.06416e-01
       H -2.80692e+00  1.22421e+00  1.22765e+00
       H -4.10607e+00  1.23782e+00  2.49561e-01
4
# CELL(abcABC): 1000.00000  1000.00000  1000.00000    90.00000    90.00000    90.00000  Step:          66  Bead:       0 positions{angstrom}  cell{angstrom}
       O -3.14278e+00  1.08179e+00  3.41092e-01
       H -2.60193e+00  4.42167e-01 -2.02175e-01
       H -2.79354e+00  1.22420e+00  1.22243e+00
       H -4.10384e+00  1.23266e+00  2.51110e-01
4
# CELL(abcABC): 1000.00000  1000.00000  1000.00000    90.00000    90.00000    90.00000  Step:          67  Bead:       0 positions{angstrom}  cell{angstrom}
       O -3.14323e+00  1.08134e+00  3.40973e-01
       H -2.61114e+00  4.56382e-01 -1.96501e-01
       H -2.77936e+00  1.22386e+00  1.21757e+00
       H -4.10175e+00  1.22602e+00  2.52180e-01
4
# CELL(abcABC): 1000.00000  1000.00000  1000.00000    90.00000    90.00000    90.00000  Step:          68  Bead:       0 positions{angstrom}  cell{angstrom}
       O -3.14367e+00  1.08078e+00  3.40991e-01
       H -2.62168e+00  4.72565e-01 -1.89994e-01
       H -2.76475e+00  1.22331e+00  1.21087e+00
       H -4.09886e+00  1.21929e+00  2.52078e-01
4
# CELL(abcABC): 1000.00000  1000.00000  1000.00000    90.00000    90.00000    90.00000  Step:          69  Bead:       0 positions{angstrom}  cell{angstrom}
       O -3.14404e+00  1.08035e+00  3.40901e-01
       H -2.63337e+00  4.87879e-01 -1.82159e-01
       H -2.75091e+00  1.22274e+00  1.20491e+00
       H -4.09510e+00  1.21128e+00  2.51632e-01
4
# CELL(abcABC): 1000.00000  1000.00000  1000.00000    90.00000    90.00000    90.00000  Step:          70  Bead:       0 positions{angstrom}  cell{angstrom}
       O -3.14461e+00  1.07991e+00  3.40987e-01
       H -2.64402e+00  5.02541e-01 -1.77237e-01
       H -2.73714e+00  1.22302e+00  1.19852e+00
       H -4.08918e+00  1.20335e+00  2.51743e-01
4
# CELL(abcABC): 1000.00000  1000.00000  1000.00000    90.00000    90.00000    90.00000  Step:          71  Bead:       0 positions{angstrom}  cell{angstrom}
       O -3.14521e+00  1.07976e+00  3.41412e-01
       H -2.65325e+00  5.13029e-01 -1.77349e-01
       H -2.72426e+00  1.22303e+00  1.19156e+00
       H -4.08328e+00  1.19532e+00  2.52074e-01
4
# CELL(abcABC): 1000.00000  1000.00000  1000.00000    90.00000    90.00000    90.00000  Step:          72  Bead:       0 positions{angstrom}  cell{angstrom}
       O -3.14594e+00  1.07976e+00  3.42114e-01
       H -2.65906e+00  5.19464e-01 -1.81968e-01
       H -2.71174e+00  1.22358e+00  1.18539e+00
       H -4.07842e+00  1.18821e+00  2.51708e-01
4
# CELL(abcABC): 1000.00000  1000.00000  1000.00000    90.00000    90.00000    90.00000  Step:          73  Bead:       0 positions{angstrom}  cell{angstrom}
       O -3.14669e+00  1.08007e+00  3.43228e-01
       H -2.66161e+00  5.21005e-01 -1.91924e-01
       H -2.69994e+00  1.22501e+00  1.17940e+00
       H -4.07580e+00  1.18037e+00  2.49984e-01
4
# CELL(abcABC): 1000.00000  1000.00000  1000.00000    90.00000    90.00000    90.00000  Step:          74  Bead:       0 positions{angstrom}  cell{angstrom}
       O -3.14746e+00  1.08054e+00  3.44793e-01
       H -2.66090e+00  5.18433e-01 -2.07833e-01
       H -2.68900e+00  1.22703e+00  1.17251e+00
       H -4.07514e+00  1.17352e+00  2.47936e-01
4
# CELL(abcABC): 1000.00000  1000.00000  1000.00000    90.00000    90.00000    90.00000  Step:          75  Bead:       0 positions{angstrom}  cell{angstrom}
       O -3.14799e+00  1.08116e+00  3.46540e-01
       H -2.65889e+00  5.12075e-01 -2.27546e-01
       H -2.67953e+00  1.22907e+00  1.16691e+00
       H -4.07831e+00  1.16799e+00  2.45518e-01
4
# CELL(abcABC): 1000.00000  1000.00000  1000.00000    90.00000    90.00000    90.00000  Step:          76  Bead:       0 positions{angstrom}  cell{angstrom}
       O -3.14842e+00  1.08165e+00  3.48201e-01
       H -2.65563e+00  5.04921e-01 -2.47557e-01
       H -2.67112e+00  1.23179e+00  1.16213e+00
       H -4.08305e+00  1.16458e+00  2.43938e-01
4
# CELL(abcABC): 1000.00000  1000.00000  1000.00000    90.00000    90.00000    90.00000  Step:          77  Bead:       0 positions{angstrom}  cell{angstrom}
       O -3.14855e+00  1.08201e+00  3.49726e-01
       H -2.65332e+00  4.99265e-01 -2.67119e-01
       H -2.66410e+00  1.23540e+00  1.15885e+00
       H -4.09036e+00  1.16094e+00  2.42588e-01
4
# CELL(abcABC): 1000.00000  1000.00000  1000.00000    90.00000    90.00000    90.00000  Step:          78  Bead:       0 positions{angstrom}  cell{angstrom}
       O -3.14838e+00  1.08220e+00  3.51203e-01
       H -2.65400e+00  4.94813e-01 -2.85662e-01
       H -2.65714e+00  1.24018e+00  1.15621e+00
       H -4.09932e+00  1.15764e+00  2.40307e-01
4
# CELL(abcABC): 1000.00000  1000.00000  1000.00000    90.00000    90.00000    90.00000  Step:          79  Bead:       0 positions{angstrom}  cell{angstrom}
       O -3.14805e+00  1.08225e+00  3.52355e-01
       H -2.65779e+00  4.93710e-01 -2.99782e-01
       H -2.64970e+00  1.24453e+00  1.15419e+00
       H -4.10822e+00  1.15350e+00  2.38165e-01
4
# CELL(abcABC): 1000.00000  1000.00000  1000.00000    90.00000    90.00000    90.00000  Step:          80  Bead:       0 positions{angstrom}  cell{angstrom}
       O -3.14763e+00  1.08208e+00  3.53060e-01
       H -2.66389e+00  4.96214e-01 -3.10034e-01
       H -2.64263e+00  1.24892e+00  1.15385e+00
       H -4.11590e+00  1.14937e+00  2.37572e-01
4
# CELL(abcABC): 1000.00000  1000.00000  1000.00000    90.00000    90.00000    90.00000  Step:          81  Bead:       0 positions{angstrom}  cell{angstrom}
       O -3.14712e+00  1.08152e+00  3.53481e-01
       H -2.67055e+00  5.03063e-01 -3.16748e-01
       H -2.63700e+00  1.25535e+00  1.15396e+00
       H -4.12285e+00  1.14492e+00  2.37484e-01
4
# CELL(abcABC): 1000.00000  1000.00000  1000.00000    90.00000    90.00000    90.00000  Step:          82  Bead:       0 positions{angstrom}  cell{angstrom}
       O -3.14652e+00  1.08088e+00  3.53484e-01
       H -2.67886e+00  5.12650e-01 -3.18600e-01
       H -2.63202e+00  1.26064e+00  1.15385e+00
       H -4.12910e+00  1.14032e+00  2.39399e-01
4
# CELL(abcABC): 1000.00000  1000.00000  1000.00000    90.00000    90.00000    90.00000  Step:          83  Bead:       0 positions{angstrom}  cell{angstrom}
       O -3.14591e+00  1.07997e+00  3.53215e-01
       H -2.68892e+00  5.25477e-01 -3.16419e-01
       H -2.62821e+00  1.26630e+00  1.15321e+00
       H -4.13255e+00  1.13618e+00  2.42137e-01
4
# CELL(abcABC): 1000.00000  1000.00000  1000.00000    90.00000    90.00000    90.00000  Step:          84  Bead:       0 positions{angstrom}  cell{angstrom}
       O -3.14529e+00  1.07894e+00  3.52786e-01
       H -2.69889e+00  5.39499e-01 -3.12642e-01
       H -2.62668e+00  1.27203e+00  1.15158e+00
       H -4.13388e+00  1.13279e+00  2.46805e-01
4
# CELL(abcABC): 1000.00000  1000.00000  1000.00000    90.00000    90.00000    90.00000  Step:          85  Bead:       0 positions{angstrom}  cell{angstrom}