4
# CELL(abcABC): 1000.00000  1000.00000  1000.00000    90.00000    90.00000    90.00000  Step:         413  Bead:       0 positions{angstrom}  cell{angstrom}
       O -3.16331e+00  1.05847e+00  3.54859e-01
       H -2.70517e+00  1.98782e-01  4.22875e-01
       H -2.80111e+00  1.65231e+00  1.01673e+00
       H -3.66727e+00  1.41794e+00 -3.86784e-01
