11115
# CELL(abcABC):   47.66706    47.66706    47.66706    90.00000    90.00000    90.00000  Step:       10000  Bead:       0 positions{angstrom}  cell{angstrom}
       C  6.89411e+00  4.20244e+00  7.40755e+00
       H  6.24461e+00  5.07007e+00  7.25433e+00
       H  7.93166e+00  4.36610e+00  7.39229e+00
       H  6.66456e+00  3.76519e+00  8.42783e+00
       C  6.53997e+00  3.14038e+00  6.44071e+00
       O  5.64630e+00  3.24462e+00  5.54381e+00
       N  7.23433e+00  2.01089e+00  6.66426e+00
       H  7.75469e+00  1.98261e+00  7.54622e+00
       C  7.09110e+00  8.49625e-01  5.76234e+00
       H  6.10298e+00  9.67191e-01  5.38464e+00
       C  8.06658e+00  1.07214e+00  4.65153e+00
       H  9.07789e+00  9.82444e-01  5.07179e+00
       H  7.91796e+00  2.09398e+00  4.25677e+00
       C  7.96081e+00  2.54371e-01  3.42047e+00
       O  9.04489e+00 -1.94415e-01  2.90587e+00
       O  6.85877e+00 -5.63804e-02  2.97134e+00
       H  6.80033e+00 -6.44857e-01  2.01907e+00
       C  7.34732e+00 -5.66818e-01  6.34747e+00
       O  8.22763e+00 -1.27835e+00  5.92954e+00
       N  6.61034e+00 -9.44886e-01  7.39346e+00
       H  6.88428e+00 -1.76280e+00  7.90966e+00
       H  5.70988e+00 -5.44119e-01  7.52158e+00
       O -1.65075e+01 -1.13071e+01 -5.22008e+00
       H -1.69279e+01 -1.08852e+01 -6.01599e+00
       H -1.71993e+01 -1.18244e+01 -4.75903e+00
       O -3.31579e+01 -2.09664e+01 -3.07426e+01
       H -3.38118e+01 -2.14679e+01 -3.01735e+01
       H -3.35545e+01 -2.10673e+01 -3.16265e+01
       O -1.21078e+01 -1.03572e+01  2.44476e+00
       H -1.15045e+01 -9.75113e+00  2.93997e+00
       H -1.22228e+01 -1.10061e+01  3.07257e+00
       O -2.25075e+01 -3.32170e+01 -1.43725e+01
       H -2.18525e+01 -3.36288e+01 -1.49427e+01
       H -2.23865e+01 -3.22792e+01 -1.46127e+01
       O -2.77625e+01 -2.04311e+01 -2.32108e+00
       H -2.73269e+01 -2.12637e+01 -2.14583e+00
       H -2.85967e+01 -2.06956e+01 -2.85137e+00
       O -2.46480e+01 -2.65539e+01 -1.65161e+01
       H -2.52737e+01 -2.70539e+01 -1.59749e+01
       H -2.40953e+01 -2.60759e+01 -1.58874e+01
       O -2.95552e+01 -2.77239e+01 -1.55893e+01
       H -2.91366e+01 -2.70443e+01 -1.51151e+01
       H -2.88419e+01 -2.83036e+01 -1.58022e+01
       O -2.32526e+01 -1.29970e+01 -1.84850e+01
       H -2.28677e+01 -1.36215e+01 -1.91851e+01
       H -2.34601e+01 -1.37028e+01 -1.77891e+01
       O -1.60318e+01 -2.96701e+01 -2.29784e+01
       H -1.53725e+01 -3.00211e+01 -2.35931e+01
       H -1.63481e+01 -2.88946e+01 -2.34694e+01
       O -4.60468e+00 -3.00624e+01 -2.54571e+00
       H -3.83413e+00 -2.96594e+01 -2.12370e+00
       H -4.22187e+00 -3.03642e+01 -3.41819e+00
       O -2.00323e+01 -9.98746e+00 -2.36222e+01
       H -2.06795e+01 -1.06016e+01 -2.38725e+01
       H -1.92028e+01 -1.05527e+01 -2.36207e+01
       O -6.69262e+00  1.24474e+01 -5.11281e+00
       H -7.60673e+00  1.20401e+01 -5.01807e+00
       H -6.73813e+00  1.33700e+01 -5.36044e+00
       O -1.59099e+01 -2.26846e+01 -2.47879e+01
       H -1.67232e+01 -2.32079e+01 -2.47769e+01
       H -1.56963e+01 -2.27087e+01 -2.38343e+01
       O -2.24914e+01 -1.25949e+01 -1.14392e+01
       H -2.29379e+01 -1.18873e+01 -1.08696e+01
       H -2.17727e+01 -1.21053e+01 -1.18521e+01
       O -3.11359e+01 -3.60195e+01 -3.59104e+01
       H -3.17270e+01 -3.53318e+01 -3.61681e+01
       H -3.02796e+01 -3.58762e+01 -3.64157e+01
       O -1.20466e+01 -2.00790e+01 -1.37004e+01
       H -1.24741e+01 -2.00445e+01 -1.45700e+01
       H -1.10896e+01 -1.99263e+01 -1.38136e+01
       O -3.07028e+01 -2.84097e+01  9.57205e+00
       H -2.98457e+01 -2.82097e+01  9.29115e+00
       H -3.11689e+01 -2.82283e+01  8.73525e+00
       O -1.53851e+01 -6.54000e+00 -2.65219e+01
       H -1.57187e+01 -7.07935e+00 -2.58351e+01
       H -1.56091e+01 -5.58311e+00 -2.62652e+01
       O -2.41794e+01 -1.72982e+01  1.11163e+01
       H -2.34641e+01 -1.71850e+01  1.04514e+01
       H -2.48429e+01 -1.68144e+01  1.05862e+01
       O -2.47712e+01  8.89505e+00 -3.42803e+01
       H -2.49655e+01  9.29368e+00 -3.51476e+01
       H -2.47017e+01  9.66318e+00 -3.36771e+01
       O -5.03150e+00 -3.02308e+01 -1.21885e+01
       H -5.69843e+00 -2.97157e+01 -1.18890e+01
       H -5.39744e+00 -3.11293e+01 -1.21020e+01
       O -3.81590e+01 -5.37471e+00 -2.50269e+01
       H -3.87338e+01 -4.78590e+00 -2.45928e+01
       H -3.87598e+01 -6.18181e+00 -2.52195e+01
       O -2.41207e+00 -9.67679e+00 -1.69284e+01
       H -2.25375e+00 -8.85017e+00 -1.63982e+01
       H -1.85119e+00 -1.03446e+01 -1.64760e+01
       O -2.88835e+01 -1.67833e+01 -1.55677e+01
       H -2.98352e+01 -1.64079e+01 -1.55340e+01
       H -2.85997e+01 -1.66742e+01 -1.46692e+01
       O -1.24230e+01 -4.03606e+01 -3.23346e+01
       H -1.18844e+01 -4.02993e+01 -3.14720e+01
       H -1.27919e+01 -4.12708e+01 -3.21785e+01
       O -1.41101e+01 -7.49110e+00 -2.30923e+01
       H -1.41639e+01 -6.60341e+00 -2.27829e+01
       H -1.32082e+01 -7.44540e+00 -2.35946e+01
       O -9.17240e+00  1.99010e+01 -4.80356e+00
       H -8.26558e+00  2.01654e+01 -4.55565e+00
       H -9.66072e+00  2.07558e+01 -4.54161e+00
       O -1.10446e+01 -7.94799e+00  3.41004e+00
       H -1.12165e+01 -7.01058e+00  3.69705e+00
       H -1.02162e+01 -7.82155e+00  2.94740e+00
       O -1.09631e+01 -1.21255e+01 -1.24368e+01
       H -1.18566e+01 -1.24153e+01 -1.27160e+01
       H -1.11181e+01 -1.14828e+01 -1.16942e+01
       O -9.30118e+00 -1.92449e+01 -8.05949e+00
       H -8.59311e+00 -1.99849e+01 -8.20317e+00
       H -9.59287e+00 -1.93734e+01 -7.13419e+00
       O  9.11720e+00  6.77231e+00 -4.08608e+01
       H  9.46370e+00  5.91526e+00 -4.12266e+01
       H  9.63783e+00  7.38890e+00 -4.14313e+01
       O  6.06391e+00 -2.73396e+01 -1.95214e+01
       H  6.02128e+00 -2.83511e+01 -1.94668e+01
       H  6.91545e+00 -2.71900e+01 -1.91149e+01
       O  4.88436e+00 -1.88811e+00 -5.17955e+00
       H  5.44691e+00 -1.51886e+00 -4.48826e+00
       H  4.23484e+00 -2.30944e+00 -4.58522e+00
       O -3.78053e+01 -1.54739e+01 -3.07985e+00
       H -3.72924e+01 -1.53073e+01 -3.88436e+00
       H -3.82994e+01 -1.62381e+01 -3.37008e+00
       O -9.37950e+00 -1.97798e+01 -1.42378e+01
       H -8.53232e+00 -1.93153e+01 -1.43806e+01
       H -9.05936e+00 -2.06710e+01 -1.40245e+01
       O -1.03799e+01 -1.66410e+01 -2.57711e+01
       H -1.00356e+01 -1.74243e+01 -2.63042e+01
       H -9.64069e+00 -1.67574e+01 -2.51533e+01
       O -1.37682e+01 -1.97608e+01  2.75224e+00
       H -1.44247e+01 -1.90841e+01  2.42952e+00
       H -1.31639e+01 -1.92262e+01  3.29699e+00
       O -1.93808e+01 -3.81224e+01 -1.34924e+01
       H -1.91816e+01 -3.75641e+01 -1.26580e+01
       H -2.02999e+01 -3.78869e+01 -1.35733e+01
       O -1.01563e+01 -7.09672e+00  6.20945e+00
       H -1.11102e+01 -7.16120e+00  6.39805e+00
       H -9.88815e+00 -7.80165e+00  5.52138e+00
       O  1.21581e+01 -8.75533e-01 -4.03370e+01
       H  1.18796e+01 -5.46463e-01 -3.94589e+01
       H  1.13426e+01 -6.51444e-01 -4.08047e+01
       O -2.41803e+00 -3.14102e+01 -2.09039e+01
       H -3.32777e+00 -3.17083e+01 -2.09605e+01
       H -2.44266e+00 -3.06827e+01 -2.02246e+01
       O -3.01614e+01 -1.31048e+01 -6.56319e+00
       H -3.00950e+01 -1.21195e+01 -6.40816e+00
       H -3.06886e+01 -1.32506e+01 -7.35797e+00
       O -9.88362e-01 -1.43343e+01 -1.71539e+01
       H -1.28443e+00 -1.36994e+01 -1.63846e+01
       H -1.88484e+00 -1.45752e+01 -1.73269e+01
       O -2.30700e+01 -5.07180e+01 -2.88486e+01
       H -2.27331e+01 -5.09572e+01 -2.97204e+01
       H -2.32606e+01 -4.97884e+01 -2.88754e+01
       O -2.26882e+01 -6.25564e+00 -3.80587e+01
       H -2.24868e+01 -5.50564e+00 -3.85916e+01
       H -2.34202e+01 -6.64650e+00 -3.84986e+01
       O -7.90978e+00 -2.99717e+00 -3.42526e+01
       H -7.58441e+00 -3.28606e+00 -3.51093e+01
       H -8.19457e+00 -3.85658e+00 -3.39112e+01
       O -4.94631e+01 -2.32196e+01 -9.36418e+00
       H -4.88257e+01 -2.37269e+01 -8.94524e+00
       H -4.99007e+01 -2.38759e+01 -9.87785e+00
       O -2.36591e+01 -1.09824e+01 -9.59967e+00
       H -2.42242e+01 -1.15414e+01 -9.03653e+00
       H -2.32493e+01 -1.04108e+01 -8.98225e+00
       O -2.06382e+01 -2.42760e+01 -1.93995e+01
       H -2.13514e+01 -2.36532e+01 -1.91696e+01
       H -2.10391e+01 -2.47621e+01 -2.01724e+01
       O  7.28453e+00 -6.82350e+00  2.14182e+00
       H  6.52331e+00 -6.19901e+00  2.14072e+00
       H  7.68418e+00 -6.42974e+00  1.27657e+00
       O  1.54998e+00  2.55312e+00  7.25507e+00
       H  2.11619e+00  3.36875e+00  7.60691e+00
       H  1.89881e+00  2.42127e+00  6.33456e+00
       O -3.31930e-01  2.29780e-01 -3.98441e-01
       H -2.56445e-02 -5.69362e-01 -8.77397e-01
       H  5.56817e-01  5.40945e-01 -1.02726e-01
       O -1.28321e+01 -8.33261e+00 -1.77587e+01
       H -1.19344e+01 -7.92385e+00 -1.74779e+01
       H -1.29493e+01 -8.00805e+00 -1.86403e+01
       O -6.45863e+00  1.29331e+01 -1.99043e+01
       H -7.17255e+00  1.23210e+01 -1.98160e+01
       H -6.16502e+00  1.27355e+01 -2.08398e+01
       O -1.33365e+01 -1.25856e+01 -4.91269e+00
       H -1.26079e+01 -1.22267e+01 -4.46399e+00
       H -1.37522e+01 -1.17668e+01 -5.17662e+00
       O -1.40339e+01 -3.47272e+01 -2.85879e+01
       H -1.48524e+01 -3.41099e+01 -2.86778e+01
       H -1.41974e+01 -3.51144e+01 -2.77278e+01
       O -1.84500e+01 -2.50026e+01 -6.30977e+00
       H -1.84556e+01 -2.49765e+01 -5.35036e+00
       H -1.92807e+01 -2.54226e+01 -6.54913e+00
       O -1.97560e+01 -3.90949e+01 -7.50485e+00
       H -1.99668e+01 -4.00462e+01 -7.64385e+00
       H -2.05771e+01 -3.87058e+01 -7.73889e+00
       O  2.61949e+00  2.09537e+00 -4.23641e+00
       H  1.74411e+00  2.48378e+00 -3.97687e+00
       H  2.55238e+00  1.80041e+00 -5.12881e+00
       O -5.29870e+00 -3.16960e+01 -2.75499e+01
       H -5.54534e+00 -3.26751e+01 -2.77445e+01
       H -4.34278e+00 -3.17219e+01 -2.78601e+01
       O  4.56047e+00  1.68824e+00 -2.36602e+01
       H  4.79226e+00  1.03434e+00 -2.29002e+01
       H  5.41581e+00  1.77515e+00 -2.41008e+01
       O -3.92507e+01 -1.84717e+01 -1.03359e+01
       H -3.88180e+01 -1.92847e+01 -9.96340e+00
       H -4.01152e+01 -1.88929e+01 -1.06508e+01
       O -1.52165e+01 -4.53345e+01 -2.25861e+01
       H -1.55121e+01 -4.44520e+01 -2.29162e+01
       H -1.42913e+01 -4.54157e+01 -2.29366e+01
       O -1.19082e+01 -2.20036e+01 -8.37345e+00
       H -1.14577e+01 -2.15817e+01 -9.14427e+00
       H -1.25701e+01 -2.26191e+01 -8.75418e+00
       O  3.53640e+00 -2.06471e+01 -2.21445e+01
       H  4.28393e+00 -2.00771e+01 -2.21160e+01
       H  3.98081e+00 -2.14324e+01 -2.23808e+01
       O -2.14710e+01 -3.73692e+01 -1.59565e+01
       H -2.11763e+01 -3.80848e+01 -1.65142e+01
       H -2.07323e+01 -3.67611e+01 -1.59456e+01
       O -3.47221e+01 -1.52937e+01 -1.69272e+01
       H -3.52006e+01 -1.51385e+01 -1.77291e+01
       H -3.49291e+01 -1.44273e+01 -1.65070e+01
       O -2.13092e+01 -1.76589e+01 -2.83933e+01
       H -2.12781e+01 -1.82398e+01 -2.91853e+01
       H -2.14497e+01 -1.83415e+01 -2.77128e+01
       O -2.06617e+01  2.23471e+00 -2.37592e+01
       H -2.04055e+01  2.05748e+00 -2.28492e+01
       H -1.97884e+01  2.53834e+00 -2.40322e+01
       O -2.29650e+01 -9.11552e+00 -1.32973e+01
       H -2.24936e+01 -8.75984e+00 -1.25537e+01
       H -2.26010e+01 -8.69195e+00 -1.40885e+01
       O -2.02844e+01 -2.98459e+01  1.08717e+01
       H -1.98665e+01 -2.91543e+01  1.03325e+01
       H -2.04821e+01 -3.05355e+01  1.01766e+01
       O -2.90992e-01 -8.56006e+00 -2.54864e+00
       H -1.91935e-01 -9.20766e+00 -3.29867e+00
       H -1.08212e+00 -8.07892e+00 -2.90240e+00
       O -1.76685e+01 -2.18879e+01 -3.57418e+01
       H -1.82920e+01 -2.21807e+01 -3.50026e+01
       H -1.75722e+01 -2.26264e+01 -3.63551e+01
       O -1.28880e+01 -2.48795e+01 -3.48391e+01
       H -1.29483e+01 -2.53441e+01 -3.56737e+01
       H -1.22650e+01 -2.54649e+01 -3.43856e+01
       O -2.73635e+01 -3.47132e+01  1.19833e+01
       H -2.66460e+01 -3.43002e+01  1.25359e+01
       H -2.80605e+01 -3.48336e+01  1.26873e+01
       O -2.67582e+01 -2.41855e+01 -3.30074e+01
       H -2.75092e+01 -2.36195e+01 -3.32803e+01
       H -2.72243e+01 -2.49498e+01 -3.26130e+01
       O -3.65236e+00 -1.71559e+01  1.24315e+01
       H -3.53971e+00 -1.69578e+01  1.34015e+01
       H -4.15058e+00 -1.79926e+01  1.25176e+01
       O -3.86118e+01 -1.16172e+01  2.50779e-01
       H -3.78473e+01 -1.10904e+01  9.16660e-02
       H -3.90321e+01 -1.10947e+01  8.68882e-01
       O -1.60823e+01 -2.63110e+01 -4.64157e+00
       H -1.58625e+01 -2.59044e+01 -5.43030e+00
       H -1.53068e+01 -2.60115e+01 -4.15049e+00
       O -1.81486e+01 -2.39620e+01 -2.40345e+01
       H -1.74748e+01 -2.43606e+01 -2.34913e+01
       H -1.88978e+01 -2.36516e+01 -2.35072e+01
       O -3.37981e+00 -1.65411e+01 -1.99918e+01
       H -3.79280e+00 -1.60345e+01 -1.92891e+01
       H -3.18038e+00 -1.58557e+01 -2.06622e+01
       O -1.04164e+01 -1.62413e+01 -1.08677e+01
       H -1.10585e+01 -1.54889e+01 -1.07050e+01
       H -1.09669e+01 -1.69836e+01 -1.05510e+01
       O -3.03855e+01  1.61668e+01 -1.57343e+01
       H -3.04380e+01  1.67121e+01 -1.49230e+01
       H -2.98847e+01  1.54665e+01 -1.52908e+01
       O -3.28782e+00 -2.13876e+01 -2.09471e+01
       H -4.12818e+00 -2.09821e+01 -2.11642e+01
       H -2.60346e+00 -2.06525e+01 -2.13165e+01
       O -1.03905e+01 -2.40257e+01 -4.39208e+01
       H -9.61980e+00 -2.34846e+01 -4.36176e+01
       H -1.07832e+01 -2.43449e+01 -4.30871e+01
       O -1.42602e+01 -1.97104e+01 -1.58795e+01
       H -1.46218e+01 -2.04232e+01 -1.53062e+01
       H -1.50061e+01 -1.91691e+01 -1.60883e+01
       O -6.56978e+00  4.22025e+00 -1.72878e+01
       H -7.15625e+00  4.01125e+00 -1.79937e+01
       H -5.71239e+00  3.95909e+00 -1.76677e+01
       O -1.12462e+01 -2.58966e+01 -3.67976e+01
       H -1.05286e+01 -2.63217e+01 -3.63222e+01
       H -1.07664e+01 -2.53148e+01 -3.74760e+01
       O -4.82672e+01 -2.84385e+01 -1.46303e+01
       H -4.87824e+01 -2.80485e+01 -1.53689e+01
       H -4.89448e+01 -2.87360e+01 -1.39352e+01
       O -1.89735e+01 -1.87798e+01  1.08561e+01
       H -1.92570e+01 -1.97208e+01  1.08261e+01
       H -1.97838e+01 -1.83673e+01  1.12883e+01
       O -1.91987e+00  1.89424e+00  2.14652e+00
       H -1.91745e+00  2.62520e+00  1.51756e+00
       H -1.65766e+00  2.43687e+00  2.96224e+00
       O -2.09194e+01 -3.33130e+01 -8.49130e+00
       H -2.05911e+01 -3.32584e+01 -9.40599e+00
       H -2.02573e+01 -3.27931e+01 -7.98056e+00
       O  2.52193e-01 -1.03180e+01  1.39049e+01
       H -6.60651e-01 -1.06103e+01  1.36534e+01
       H  1.32390e-01 -9.59075e+00  1.45529e+01
       O -8.34867e+00 -7.84476e+00 -1.11445e+01
       H -7.68346e+00 -8.32882e+00 -1.05435e+01
       H -7.79768e+00 -7.73373e+00 -1.19106e+01
       O  1.37251e+01  1.44066e+01 -3.24986e-01
       H  1.40142e+01  1.48758e+01 -1.10201e+00
       H  1.44385e+01  1.37556e+01 -4.05375e-01
       O -7.49537e+00 -4.84882e+00 -3.19422e+01
       H -8.41592e+00 -5.12352e+00 -3.18717e+01
       H -7.33301e+00 -5.09174e+00 -3.29147e+01
       O -5.86545e+00 -1.23271e+01 -3.14473e+01
       H -6.60661e+00 -1.19255e+01 -3.09171e+01
       H -5.83429e+00 -1.32749e+01 -3.12614e+01
       O -2.17706e+01 -1.06635e+01 -1.97012e+01
       H -2.20241e+01 -1.13030e+01 -1.90818e+01
       H -2.09177e+01 -1.09783e+01 -1.99881e+01
       O -1.89004e+01 -2.70074e+01 -3.53267e+01
       H -1.92153e+01 -2.60845e+01 -3.55462e+01
       H -1.86889e+01 -2.74150e+01 -3.62233e+01
       O -1.00393e+01 -7.87765e-02  5.93823e+00
       H -9.76810e+00 -4.90920e-01  5.08772e+00
       H -9.67459e+00  8.40847e-01  5.88489e+00
       O -1.47909e+01 -2.58327e+01 -9.50824e+00
       H -1.39735e+01 -2.59811e+01 -9.00899e+00
       H -1.49552e+01 -2.67138e+01 -9.76868e+00
       O  1.71556e+00 -9.39400e+00 -1.39671e+01
       H  1.65362e+00 -8.46325e+00 -1.36596e+01
       H  2.06710e+00 -9.30082e+00 -1.48438e+01
       O -4.42136e+00 -1.18307e+01 -6.85529e+00
       H -4.37352e+00 -1.20077e+01 -7.78044e+00
       H -4.17359e+00 -1.08924e+01 -6.84136e+00
       O  1.91116e+01  1.74282e+01 -2.23820e+01
       H  1.82571e+01  1.72630e+01 -2.18815e+01
       H  1.96176e+01  1.78596e+01 -2.16914e+01
       O -1.97465e+01 -2.19592e+01 -1.07949e+01
       H -2.00848e+01 -2.15627e+01 -1.00019e+01
       H -1.88880e+01 -2.14976e+01 -1.08598e+01
       O -2.37408e+01 -3.69912e+01 -1.01951e+01
       H -2.44691e+01 -3.63133e+01 -1.01881e+01
       H -2.41577e+01 -3.77642e+01 -9.74619e+00
       O -9.55802e+00 -2.72059e+01 -1.74641e+01
       H -9.23779e+00 -2.77377e+01 -1.82143e+01
       H -9.33326e+00 -2.63201e+01 -1.78286e+01
       O -5.76414e+00 -2.56088e+01 -1.85812e+01
       H -4.95119e+00 -2.52333e+01 -1.81476e+01
       H -5.76201e+00 -2.64768e+01 -1.82799e+01
       O -2.55115e+01 -3.28192e+00 -2.34788e+01
       H -2.52464e+01 -4.25240e+00 -2.33680e+01
       H -2.57781e+01 -3.42046e+00 -2.44100e+01
       O -1.99337e+01 -3.03717e+01 -2.31545e+01
       H -1.97827e+01 -3.00436e+01 -2.40924e+01
       H -2.06000e+01 -3.10886e+01 -2.32152e+01
       O -1.54694e+01 -4.60634e+00 -4.61973e+00
       H -1.60499e+01 -4.30578e+00 -3.85899e+00
       H -1.46517e+01 -4.14341e+00 -4.36064e+00
       O -1.66074e+01 -5.23239e+01 -4.97689e+01
       H -1.63526e+01 -5.17061e+01 -4.89728e+01
       H -1.63345e+01 -5.32362e+01 -4.94474e+01
       O -1.08132e+01 -2.09635e+01 -1.05199e+01
       H -9.95634e+00 -2.04977e+01 -1.06714e+01
       H -1.12117e+01 -2.11831e+01 -1.13970e+01
       O -1.65512e+01 -3.37973e+01 -1.61508e+01
       H -1.66811e+01 -3.30515e+01 -1.56298e+01
       H -1.71197e+01 -3.35812e+01 -1.68663e+01
       O -1.34126e+01 -1.10264e+01 -1.64850e+01
       H -1.37344e+01 -1.09334e+01 -1.74193e+01
       H -1.29356e+01 -1.01417e+01 -1.63748e+01
       O -2.15323e+01 -1.59689e+01 -1.77005e+01
       H -2.07733e+01 -1.63485e+01 -1.73187e+01
       H -2.20774e+01 -1.55993e+01 -1.69526e+01
       O -7.85973e+00 -1.76213e+01 -2.97958e+00
       H -7.73622e+00 -1.82686e+01 -3.78492e+00
       H -7.98213e+00 -1.83370e+01 -2.33711e+00
       O -6.32436e+00 -2.38714e+01 -4.54593e+01
       H -6.86010e+00 -2.43282e+01 -4.47966e+01
       H -5.46642e+00 -2.40372e+01 -4.52207e+01
       O -5.59589e+00 -2.16085e+01 -1.47911e+01
       H -5.52782e+00 -2.07810e+01 -1.53318e+01
       H -5.58918e+00 -2.11527e+01 -1.38624e+01
       O -2.08831e+01 -1.78280e+01 -9.73887e+00
       H -2.03893e+01 -1.81069e+01 -8.94097e+00
       H -2.01771e+01 -1.73105e+01 -1.01960e+01
       O -2.72768e+01 -1.52677e+01 -2.51987e+01
       H -2.64320e+01 -1.57749e+01 -2.53328e+01
       H -2.76431e+01 -1.51173e+01 -2.61157e+01
       O  1.77328e+00 -6.08690e+00 -2.54574e+01
       H  2.58898e+00 -5.55813e+00 -2.53695e+01
       H  2.05861e+00 -6.61247e+00 -2.62324e+01
       O  6.87363e-01 -1.41955e+00  1.27759e+01
       H  1.56021e-02 -8.50970e-01  1.32075e+01
       H  1.45122e+00 -8.48550e-01  1.30048e+01
       O -1.98178e+01 -2.45988e+01  1.14958e+01
       H -2.01357e+01 -2.37387e+01  1.17686e+01
       H -2.06933e+01 -2.49041e+01  1.11025e+01
       O -2.39264e+01 -8.33164e+00 -4.54439e-01
       H -2.48778e+01 -8.55707e+00 -2.23597e-01
       H -2.41510e+01 -7.99172e+00 -1.32714e+00
       O -4.40400e+01 -1.54408e+01 -7.96580e+00
       H -4.32138e+01 -1.49740e+01 -7.73016e+00
       H -4.36488e+01 -1.59042e+01 -8.74321e+00
       O  1.60291e+00 -6.42204e+00 -1.40279e+00
       H  9.19848e-01 -7.12537e+00 -1.42783e+00
       H  2.44681e+00 -6.96508e+00 -1.44866e+00
       O -2.86101e+01 -5.66876e+00 -5.63428e+01
       H -2.79754e+01 -6.33716e+00 -5.59099e+01
       H -2.85451e+01 -6.06513e+00 -5.72734e+01
       O -8.33271e+00 -2.36239e+01 -1.14374e+01
       H -9.15025e+00 -2.40907e+01 -1.17303e+01
       H -8.42934e+00 -2.35251e+01 -1.05250e+01
       O -1.51456e+00 -1.26214e+01 -2.77377e+01
       H -2.46401e+00 -1.22457e+01 -2.76676e+01
       H -1.07602e+00 -1.17889e+01 -2.74360e+01
       O -5.56835e+01 -1.89865e+01  6.10710e-01
       H -5.51177e+01 -1.82106e+01  4.44678e-01
       H -5.59904e+01 -1.91418e+01 -3.25725e-01
       O -2.47631e+00 -1.02847e+01  1.26902e+00
       H -2.24793e+00 -1.10067e+01  6.93253e-01
       H -2.82046e+00 -1.07897e+01  2.02332e+00
       O -1.39893e+01 -1.07103e+01  2.84085e+01
       H -1.32669e+01 -1.00791e+01  2.82277e+01
       H -1.44313e+01 -1.07657e+01  2.75189e+01
       O -1.12714e+01 -3.52100e+01 -4.14445e+01
       H -1.08700e+01 -3.53903e+01 -4.23181e+01
       H -1.05831e+01 -3.46922e+01 -4.09338e+01
       O -1.43628e+01 -1.32637e+01 -1.00604e+01
       H -1.33804e+01 -1.34205e+01 -1.01356e+01
       H -1.45097e+01 -1.34297e+01 -9.11798e+00
       O -1.26176e+01 -1.01104e+01  6.56069e+00
       H -1.34554e+01 -1.04081e+01  6.91182e+00
       H -1.26204e+01 -9.13258e+00  6.87214e+00
       O -1.07462e+01 -5.35710e+00 -6.94272e+00
       H -9.86075e+00 -5.41100e+00 -6.59700e+00
       H -1.11415e+01 -5.41755e+00 -6.10400e+00
       O -3.43140e+01 -5.84207e+00 -2.60590e+00
       H -3.46975e+01 -5.57550e+00 -1.75752e+00
       H -3.34863e+01 -5.31112e+00 -2.63429e+00
       O -1.85801e+01 -2.26051e+01 -3.30921e+01
       H -1.95608e+01 -2.27647e+01 -3.33414e+01
       H -1.82054e+01 -2.34406e+01 -3.33105e+01
       O -1.17167e+01 -1.07341e+01 -3.46907e+00
       H -1.16968e+01 -9.87785e+00 -4.07550e+00
       H -1.25101e+01 -1.04713e+01 -2.89219e+00
       O -1.21854e+01 -3.40536e+01 -2.08123e+00
       H -1.17071e+01 -3.47198e+01 -2.48609e+00
       H -1.17445e+01 -3.33218e+01 -2.53701e+00
       O  1.53148e-01 -4.69995e+01 -8.04646e+00
       H -6.34087e-01 -4.75724e+01 -7.91315e+00
       H  8.00971e-01 -4.73700e+01 -7.40573e+00
       O -2.89195e+00 -5.95779e+00  3.89524e+00
       H -3.60778e+00 -6.33047e+00  3.37536e+00
       H -2.70291e+00 -6.75457e+00  4.40969e+00
       O -2.67264e+01 -2.46568e+01  2.48729e-01
       H -2.63264e+01 -2.42235e+01  9.99538e-01
       H -2.76097e+01 -2.42598e+01  2.18183e-01
       O  7.43064e+00  1.11346e+01  6.01870e-01
       H  7.00302e+00  1.03891e+01  1.45556e-01
       H  7.12060e+00  1.19393e+01  3.30731e-02
       O -6.87068e+00 -3.01687e+01 -1.49087e+01
       H -7.11882e+00 -2.92373e+01 -1.47203e+01
       H -7.44492e+00 -3.06905e+01 -1.42326e+01
       O -2.11910e+01 -2.45014e+01 -9.92470e+00
       H -2.19762e+01 -2.42042e+01 -1.03987e+01
       H -2.05577e+01 -2.38096e+01 -1.01607e+01
       O -2.14606e+01 -2.70101e+01 -1.33828e+01
       H -2.14647e+01 -2.79641e+01 -1.34113e+01
       H -2.09107e+01 -2.68547e+01 -1.26023e+01
       O -1.16301e+00 -5.72443e+00  1.86787e+00
       H -1.11403e+00 -6.51780e+00  1.19481e+00
       H -1.65463e+00 -5.93687e+00  2.68883e+00
       O -1.19821e+01 -1.74829e+01 -1.70349e+01
       H -1.24184e+01 -1.78766e+01 -1.78447e+01
       H -1.12111e+01 -1.70567e+01 -1.74656e+01
       O -1.74811e+01 -2.52770e+01 -1.06687e+01
       H -1.78816e+01 -2.45980e+01 -1.01316e+01
       H -1.66623e+01 -2.54854e+01 -1.01921e+01
       O -2.21204e+00 -1.60150e+01 -1.24265e+01
       H -2.32628e+00 -1.60979e+01 -1.14469e+01
       H -3.07295e+00 -1.59576e+01 -1.28857e+01
       O -8.28682e+00 -2.58297e+01 -1.94993e+01
       H -8.96205e+00 -2.51488e+01 -1.91917e+01
       H -7.45294e+00 -2.56861e+01 -1.89989e+01
       O -2.16579e+01 -1.48186e+01 -2.01631e+01
       H -2.16089e+01 -1.54091e+01 -1.93662e+01
       H -2.10336e+01 -1.41251e+01 -1.98853e+01
       O -2.81603e+01 -2.60632e+00 -6.51270e+00
       H -2.82552e+01 -1.84222e+00 -7.13287e+00
       H -2.88992e+01 -3.19894e+00 -6.78249e+00
       O -1.13008e+01 -2.79125e+00  3.53952e+00
       H -1.05891e+01 -2.27599e+00  3.94225e+00
       H -1.12698e+01 -2.39305e+00  2.67030e+00
       O -2.35397e+01 -2.86381e+00 -8.48725e+00
       H -2.35390e+01 -2.76629e+00 -9.45821e+00
       H -2.40757e+01 -2.10149e+00 -8.18058e+00
       O -1.45249e+00 -1.52451e-01 -2.29997e+01
       H -2.27808e+00 -1.12665e-01 -2.35227e+01
       H -1.76729e+00  1.20135e-01 -2.20693e+01
       O -2.32393e+01 -6.43237e+00 -3.01421e+00
       H -2.31799e+01 -7.01959e+00 -3.84284e+00
       H -2.23333e+01 -6.62247e+00 -2.47299e+00
       O -2.08501e+01 -2.13951e+01 -8.17741e+00
       H -2.14005e+01 -2.22391e+01 -8.00805e+00
       H -2.11666e+01 -2.08617e+01 -7.38400e+00
       O  4.81679e+00  8.66358e+00  1.01426e+01
       H  5.16448e+00  8.03255e+00  9.46627e+00
       H  3.82288e+00  8.41955e+00  1.02488e+01
       O -1.96216e+01 -1.50295e+01 -1.35458e+00
       H -1.98910e+01 -1.41346e+01 -1.24409e+00
       H -1.92833e+01 -1.50845e+01 -2.21445e+00
       O -1.91784e+00 -2.57704e+01 -3.73419e+01
       H -1.43347e+00 -2.55448e+01 -3.65605e+01
       H -2.81146e+00 -2.56295e+01 -3.68794e+01
       O -4.68485e-01 -6.73410e+00 -1.06226e+01
       H  5.10231e-01 -6.90243e+00 -1.05468e+01
       H -4.30465e-01 -5.77126e+00 -1.07161e+01
       O -2.79568e-01 -1.92937e+01  2.85892e+00
       H  6.33160e-01 -1.94022e+01  2.62001e+00
       H -6.26814e-01 -1.94463e+01  1.98926e+00
       O -2.57929e+01 -1.67378e+01 -1.55267e+01
       H -2.61913e+01 -1.58689e+01 -1.55375e+01
       H -2.64303e+01 -1.71077e+01 -1.61826e+01
       O -1.31935e+01 -8.22559e+00 -2.04956e+01
       H -1.35121e+01 -7.34623e+00 -2.02288e+01
       H -1.32626e+01 -8.10631e+00 -2.14907e+01
       O -1.96210e+01 -1.73382e+01 -7.14642e+00
       H -1.89545e+01 -1.71305e+01 -7.81328e+00
       H -1.90453e+01 -1.76142e+01 -6.37844e+00
       O -9.66973e+00 -1.63949e+01 -1.79289e+01
       H -8.69237e+00 -1.66133e+01 -1.79442e+01
       H -9.67389e+00 -1.61538e+01 -1.88579e+01
       O -2.06996e+01  4.96469e+00 -2.70419e+01
       H -2.07334e+01  4.18422e+00 -2.65168e+01
       H -2.05745e+01  4.49728e+00 -2.78789e+01
       O  9.24323e+00 -1.84863e+01 -2.14970e+01
       H  8.42132e+00 -1.80050e+01 -2.16766e+01
       H  9.25071e+00 -1.91924e+01 -2.21890e+01
       O -1.31963e+01 -3.81397e+01 -1.54628e+01
       H -1.23505e+01 -3.78268e+01 -1.51338e+01
       H -1.32178e+01 -3.77581e+01 -1.63283e+01
       O -2.49308e+01 -7.24837e+00  8.48626e+00
       H -2.53510e+01 -6.64791e+00  7.80768e+00
       H -2.56771e+01 -7.88326e+00  8.62209e+00
       O -3.30757e+01 -3.51316e+01 -1.95957e+01
       H -3.34849e+01 -3.54396e+01 -2.04018e+01
       H -3.27328e+01 -3.59322e+01 -1.92315e+01
       O -6.80102e+00 -1.99708e+01 -1.73639e+01
       H -5.94341e+00 -2.01710e+01 -1.76750e+01
       H -7.18663e+00 -2.08840e+01 -1.74480e+01
       O -4.38186e+01 -2.90463e+01 -2.46560e+01
       H -4.47767e+01 -2.88797e+01 -2.45053e+01
       H -4.35083e+01 -2.89198e+01 -2.36924e+01
       O -4.76990e+01 -2.06825e+01 -7.40774e+00
       H -4.68300e+01 -2.09935e+01 -7.05286e+00
       H -4.73446e+01 -1.99019e+01 -7.92488e+00
       O  3.26518e+00 -6.79112e-01  1.62988e+00
       H  2.89621e+00 -1.50291e+00  1.31259e+00
       H  4.04606e+00 -5.16250e-01  1.08227e+00
       O -8.52124e+00 -2.16264e+01 -4.66652e+01
       H -8.42490e+00 -2.06266e+01 -4.66093e+01
       H -7.74588e+00 -2.17862e+01 -4.72975e+01
       O -8.21110e+00 -2.61872e+01 -2.22391e+01
       H -8.15684e+00 -2.58454e+01 -2.13337e+01
       H -7.41627e+00 -2.59518e+01 -2.26633e+01
       O -7.39258e+00 -1.29270e+01 -3.71344e-01
       H -7.90359e+00 -1.23370e+01 -1.03131e+00
       H -7.86978e+00 -1.38112e+01 -5.03837e-01
       O -5.04789e+01 -2.01812e+01 -6.74880e+00
       H -5.00465e+01 -1.94692e+01 -6.24355e+00
       H -4.97023e+01 -2.04302e+01 -7.34761e+00
       O -1.72573e+01 -1.53658e+01  3.27522e-01
       H -1.68151e+01 -1.61072e+01 -1.53730e-01
       H -1.80509e+01 -1.53327e+01 -1.83019e-01
       O -2.29309e+01  2.17458e+01 -1.86037e+01
       H -2.31622e+01  2.26703e+01 -1.85183e+01
       H -2.35432e+01  2.14138e+01 -1.78997e+01
       O  6.84655e+00  3.59180e+00  9.64990e-01
       H  7.75288e+00  3.24783e+00  8.13846e-01
       H  6.78421e+00  3.36538e+00  1.90168e+00
       O -1.21010e+01  3.32584e+00  3.31546e+00
       H -1.12145e+01  2.83997e+00  3.34744e+00
       H -1.24029e+01  3.25433e+00  4.24507e+00
       O -2.30712e+01 -1.52177e+01 -1.24623e+01
       H -2.24407e+01 -1.49736e+01 -1.31839e+01
       H -2.29970e+01 -1.43542e+01 -1.19814e+01
       O -4.81308e+01 -2.50010e+01  1.28052e+01
       H -4.81090e+01 -2.58148e+01  1.33455e+01
       H -4.72448e+01 -2.46568e+01  1.29367e+01
       O -1.09554e+01  1.01267e+01 -2.10176e+01
       H -1.12243e+01  1.05238e+01 -2.18879e+01
       H -1.10602e+01  9.20071e+00 -2.11789e+01
       O -1.48015e+01 -2.46984e+01 -3.30584e+01
       H -1.41889e+01 -2.48737e+01 -3.37303e+01
       H -1.56563e+01 -2.50068e+01 -3.34058e+01
       O -1.10089e+01 -2.22671e+01  1.39171e+00
       H -1.00235e+01 -2.21378e+01  1.45801e+00
       H -1.10958e+01 -2.30302e+01  1.99118e+00
       O -1.68048e+01 -1.85348e+00 -3.10445e+01
       H -1.72524e+01 -1.26450e+00 -3.15685e+01
       H -1.60145e+01 -1.32676e+00 -3.08571e+01
       O -1.18335e+01 -4.85311e+00 -1.32131e+01
       H -1.10481e+01 -4.45752e+00 -1.36104e+01
       H -1.22152e+01 -5.18238e+00 -1.40501e+01
       O -4.77861e+00 -1.37080e+01  8.68392e-01
       H -4.65894e+00 -1.36340e+01 -1.23294e-01
       H -3.96598e+00 -1.40869e+01  1.11754e+00
       O -3.09389e+01  1.05408e+00 -2.27735e+01
       H -3.13521e+01  1.87825e+00 -2.24477e+01
       H -3.07096e+01  1.36279e+00 -2.36897e+01
       O -3.86939e+01 -2.11448e+01 -9.68377e+00
       H -3.77695e+01 -2.15132e+01 -9.73202e+00
       H -3.92433e+01 -2.19446e+01 -9.74167e+00
       O -1.97797e+01 -3.30359e+01 -1.10372e+01
       H -1.95122e+01 -3.24998e+01 -1.18036e+01
       H -2.04369e+01 -3.36257e+01 -1.14853e+01
       O -9.98439e+00 -1.64440e+01 -3.84799e+01
       H -9.57821e+00 -1.70901e+01 -3.90865e+01
       H -9.92628e+00 -1.68102e+01 -3.76007e+01
       O -1.88835e+01 -6.89306e+00 -8.24444e+00
       H -1.81872e+01 -6.53528e+00 -7.64128e+00
       H -1.96119e+01 -6.31338e+00 -8.11155e+00
       O -2.55770e+01 -2.55544e+01 -3.55785e+01
       H -2.57788e+01 -2.50962e+01 -3.47280e+01