4
# CELL(abcABC): 1000.00000  1000.00000  1000.00000    90.00000    90.00000    90.00000  Step:           0  Bead:       0 positions{angstrom}  cell{angstrom}
       O -3.13938e+00  1.06424e+00  3.68432e-01
       H -4.00814e+00  7.41412e-01  1.46635e-01
       H -2.56199e+00  3.43093e-01  2.00430e-01
       H -2.98314e+00  2.09288e+00  4.90332e-01
4
# CELL(abcABC): 1000.00000  1000.00000  1000.00000    90.00000    90.00000    90.00000  Step:           1  Bead:       0 positions{angstrom}  cell{angstrom}
       O -3.13780e+00  1.06451e+00  3.67831e-01
       H -4.01753e+00  7.34447e-01  1.51212e-01
       H -2.56098e+00  3.42071e-01  2.01647e-01
       H -2.99983e+00  2.09655e+00  4.94081e-01
4
# CELL(abcABC): 1000.00000  1000.00000  1000.00000    90.00000    90.00000    90.00000  Step:           2  Bead:       0 positions{angstrom}  cell{angstrom}
       O -3.13660e+00  1.06470e+00  3.67095e-01
       H -4.02508e+00  7.28622e-01  1.57269e-01
       H -2.55670e+00  3.40400e-01  2.03000e-01
       H -3.01559e+00  2.10101e+00  4.98357e-01
4
# CELL(abcABC): 1000.00000  1000.00000  1000.00000    90.00000    90.00000    90.00000  Step:           3  Bead:       0 positions{angstrom}  cell{angstrom}
       O -3.13570e+00  1.06484e+00  3.66148e-01
       H -4.02907e+00  7.22825e-01  1.66265e-01
       H -2.55133e+00  3.39602e-01  2.05221e-01
       H -3.03125e+00  2.10551e+00  5.02164e-01
4
# CELL(abcABC): 1000.00000  1000.00000  1000.00000    90.00000    90.00000    90.00000  Step:           4  Bead:       0 positions{angstrom}  cell{angstrom}
       O -3.13517e+00  1.06491e+00  3.65152e-01
       H -4.02976e+00  7.17098e-01  1.75369e-01
       H -2.54432e+00  3.39662e-01  2.07328e-01
       H -3.04597e+00  2.11004e+00  5.06763e-01
4
# CELL(abcABC): 1000.00000  1000.00000  1000.00000    90.00000    90.00000    90.00000  Step:           5  Bead:       0 positions{angstrom}  cell{angstrom}
       O -3.13488e+00  1.06474e+00  3.64078e-01
       H -4.02754e+00  7.12570e-01  1.85329e-01
       H -2.53733e+00  3.41541e-01  2.10873e-01
       H -3.05986e+00  2.11527e+00  5.10315e-01
4
# CELL(abcABC): 1000.00000  1000.00000  1000.00000    90.00000    90.00000    90.00000  Step:           6  Bead:       0 positions{angstrom}  cell{angstrom}
       O -3.13477e+00  1.06455e+00  3.62938e-01
       H -4.02181e+00  7.09258e-01  1.95303e-01
       H -2.53065e+00  3.42709e-01  2.13901e-01
       H -3.07401e+00  2.12056e+00  5.15407e-01
4
# CELL(abcABC): 1000.00000  1000.00000  1000.00000    90.00000    90.00000    90.00000  Step:           7  Bead:       0 positions{angstrom}  cell{angstrom}
       O -3.13494e+00  1.06415e+00  3.61521e-01
       H -4.01183e+00  7.06547e-01  2.07284e-01
       H -2.52412e+00  3.44589e-01  2.18245e-01
       H -3.08779e+00  2.12762e+00  5.21562e-01
4
# CELL(abcABC): 1000.00000  1000.00000  1000.00000    90.00000    90.00000    90.00000  Step:           8  Bead:       0 positions{angstrom}  cell{angstrom}
       O -3.13534e+00  1.06371e+00  3.60095e-01
       H -3.99925e+00  7.03863e-01  2.19007e-01
       H -2.51678e+00  3.46673e-01  2.22495e-01
       H -3.10134e+00  2.13522e+00  5.28226e-01
4
# CELL(abcABC): 1000.00000  1000.00000  1000.00000    90.00000    90.00000    90.00000  Step:           9  Bead:       0 positions{angstrom}  cell{angstrom}
       O -3.13581e+00  1.06334e+00  3.58499e-01
       H -3.98660e+00  6.99596e-01  2.31889e-01
       H -2.50883e+00  3.50107e-01  2.27904e-01
       H -3.11452e+00  2.14191e+00  5.35271e-01
4
# CELL(abcABC): 1000.00000  1000.00000  1000.00000    90.00000    90.00000    90.00000  Step:          10  Bead:       0 positions{angstrom}  cell{angstrom}
       O -3.13618e+00  1.06294e+00  3.57007e-01
       H -3.97538e+00  6.93761e-01  2.43701e-01
       H -2.50130e+00  3.55459e-01  2.33128e-01
       H -3.12732e+00  2.14876e+00  5.41923e-01
4
# CELL(abcABC): 1000.00000  1000.00000  1000.00000    90.00000    90.00000    90.00000  Step:          11  Bead:       0 positions{angstrom}  cell{angstrom}
       O -3.13636e+00  1.06264e+00  3.55664e-01
       H -3.96684e+00  6.86411e-01  2.53627e-01
       H -2.49572e+00  3.61659e-01  2.38414e-01
       H -3.13861e+00  2.15464e+00  5.48020e-01
4
# CELL(abcABC): 1000.00000  1000.00000  1000.00000    90.00000    90.00000    90.00000  Step:          12  Bead:       0 positions{angstrom}  cell{angstrom}
       O -3.13644e+00  1.06255e+00  3.54428e-01
       H -3.96078e+00  6.76224e-01  2.62483e-01
       H -2.49077e+00  3.67512e-01  2.43068e-01
       H -3.14836e+00  2.16043e+00  5.54129e-01
4
# CELL(abcABC): 1000.00000  1000.00000  1000.00000    90.00000    90.00000    90.00000  Step:          13  Bead:       0 positions{angstrom}  cell{angstrom}
       O -3.13636e+00  1.06266e+00  3.53220e-01
       H -3.95871e+00  6.63838e-01  2.70810e-01
       H -2.48492e+00  3.73875e-01  2.48003e-01
       H -3.15763e+00  2.16482e+00  5.60053e-01
4
# CELL(abcABC): 1000.00000  1000.00000  1000.00000    90.00000    90.00000    90.00000  Step:          14  Bead:       0 positions{angstrom}  cell{angstrom}
       O -3.13615e+00  1.06292e+00  3.52023e-01
       H -3.95885e+00  6.48639e-01  2.78892e-01
       H -2.47887e+00  3.81336e-01  2.53105e-01
       H -3.16684e+00  2.16837e+00  5.65866e-01
4
# CELL(abcABC): 1000.00000  1000.00000  1000.00000    90.00000    90.00000    90.00000  Step:          15  Bead:       0 positions{angstrom}  cell{angstrom}
       O -3.13577e+00  1.06323e+00  3.50655e-01
       H -3.96353e+00  6.30941e-01  2.88632e-01
       H -2.47354e+00  3.89655e-01  2.58519e-01
       H -3.17353e+00  2.17281e+00  5.72425e-01
4
# CELL(abcABC): 1000.00000  1000.00000  1000.00000    90.00000    90.00000    90.00000  Step:          16  Bead:       0 positions{angstrom}  cell{angstrom}
       O -3.13545e+00  1.06358e+00  3.49325e-01
       H -3.96807e+00  6.11813e-01  2.97724e-01
       H -2.46826e+00  3.99131e-01  2.64024e-01
       H -3.17940e+00  2.17687e+00  5.78934e-01
4
# CELL(abcABC): 1000.00000  1000.00000  1000.00000    90.00000    90.00000    90.00000  Step:          17  Bead:       0 positions{angstrom}  cell{angstrom}
       O -3.13517e+00  1.06400e+00  3.48031e-01
       H -3.97114e+00  5.93044e-01  3.06834e-01
       H -2.46355e+00  4.09060e-01  2.68484e-01
       H -3.18544e+00  2.17905e+00  5.85910e-01
4
# CELL(abcABC): 1000.00000  1000.00000  1000.00000    90.00000    90.00000    90.00000  Step:          18  Bead:       0 positions{angstrom}  cell{angstrom}
       O -3.13509e+00  1.06437e+00  3.46784e-01
       H -3.97317e+00  5.75865e-01  3.15946e-01
       H -2.45690e+00  4.18410e-01  2.72647e-01
       H -3.19131e+00  2.18102e+00  5.92438e-01
4
# CELL(abcABC): 1000.00000  1000.00000  1000.00000    90.00000    90.00000    90.00000  Step:          19  Bead:       0 positions{angstrom}  cell{angstrom}
       O -3.13541e+00  1.06480e+00  3.45582e-01
       H -3.97162e+00  5.60036e-01  3.25295e-01
       H -2.44999e+00  4.26407e-01  2.75818e-01
       H -3.19466e+00  2.18212e+00  5.98983e-01
4
# CELL(abcABC): 1000.00000  1000.00000  1000.00000    90.00000    90.00000    90.00000  Step:          20  Bead:       0 positions{angstrom}  cell{angstrom}
       O -3.13607e+00  1.06525e+00  3.44523e-01
       H -3.96623e+00  5.46615e-01  3.32917e-01
       H -2.44298e+00  4.33698e-01  2.78819e-01
       H -3.19656e+00  2.18108e+00  6.05184e-01
4
# CELL(abcABC): 1000.00000  1000.00000  1000.00000    90.00000    90.00000    90.00000  Step:          21  Bead:       0 positions{angstrom}  cell{angstrom}
       O -3.13716e+00  1.06567e+00  3.43642e-01
       H -3.95745e+00  5.34868e-01  3.38879e-01
       H -2.43336e+00  4.40838e-01  2.82297e-01
       H -3.19776e+00  2.17905e+00  6.09722e-01
4
# CELL(abcABC): 1000.00000  1000.00000  1000.00000    90.00000    90.00000    90.00000  Step:          22  Bead:       0 positions{angstrom}  cell{angstrom}
       O -3.13862e+00  1.06595e+00  3.42986e-01
       H -3.94628e+00  5.24402e-01  3.45175e-01
       H -2.42088e+00  4.47871e-01  2.83666e-01
       H -3.19824e+00  2.17793e+00  6.12477e-01
4
# CELL(abcABC): 1000.00000  1000.00000  1000.00000    90.00000    90.00000    90.00000  Step:          23  Bead:       0 positions{angstrom}  cell{angstrom}
       O -3.14034e+00  1.06615e+00  3.42661e-01
       H -3.93208e+00  5.16412e-01  3.50218e-01
       H -2.40733e+00  4.55606e-01  2.84898e-01
       H -3.19858e+00  2.17503e+00  6.11357e-01
4
# CELL(abcABC): 1000.00000  1000.00000  1000.00000    90.00000    90.00000    90.00000  Step:          24  Bead:       0 positions{angstrom}  cell{angstrom}
       O -3.14221e+00  1.06616e+00  3.42494e-01
       H -3.91545e+00  5.08868e-01  3.54441e-01
       H -2.39393e+00  4.65205e-01  2.85859e-01
       H -3.19894e+00  2.17278e+00  6.08819e-01
4
# CELL(abcABC): 1000.00000  1000.00000  1000.00000    90.00000    90.00000    90.00000  Step:          25  Bead:       0 positions{angstrom}  cell{angstrom}
       O -3.14402e+00  1.06619e+00  3.42384e-01
       H -3.89831e+00  5.01032e-01  3.58730e-01
       H -2.38203e+00  4.75389e-01  2.86502e-01
       H -3.19921e+00  2.17003e+00  6.05638e-01
4
# CELL(abcABC): 1000.00000  1000.00000  1000.00000    90.00000    90.00000    90.00000  Step:          26  Bead:       0 positions{angstrom}  cell{angstrom}
       O -3.14568e+00  1.06625e+00  3.42386e-01
       H -3.88197e+00  4.92413e-01  3.61612e-01
       H -2.37150e+00  4.86810e-01  2.86465e-01
       H -3.19985e+00  2.16620e+00  6.02757e-01
4
# CELL(abcABC): 1000.00000  1000.00000  1000.00000    90.00000    90.00000    90.00000  Step:          27  Bead:       0 positions{angstrom}  cell{angstrom}
       O -3.14718e+00  1.06630e+00  3.42543e-01
       H -3.86778e+00  4.83838e-01  3.63168e-01
       H -2.36297e+00  4.99069e-01  2.85621e-01
       H -3.19877e+00  2.16184e+00  5.99549e-01
4
# CELL(abcABC): 1000.00000  1000.00000  1000.00000    90.00000    90.00000    90.00000  Step:          28  Bead:       0 positions{angstrom}  cell{angstrom}
       O -3.14829e+00  1.06637e+00  3.42759e-01
       H -3.85756e+00  4.72174e-01  3.63949e-01
       H -2.35604e+00  5.13140e-01  2.84564e-01
       H -3.19819e+00  2.15828e+00  5.96396e-01
4
# CELL(abcABC): 1000.00000  1000.00000  1000.00000    90.00000    90.00000    90.00000  Step:          29  Bead:       0 positions{angstrom}  cell{angstrom}
       O -3.14910e+00  1.06644e+00  3.43107e-01
       H -3.84973e+00  4.59135e-01  3.62693e-01
       H -2.35218e+00  5.28707e-01  2.83028e-01
       H -3.19707e+00  2.15469e+00  5.93675e-01
4
# CELL(abcABC): 1000.00000  1000.00000  1000.00000    90.00000    90.00000    90.00000  Step:          30  Bead:       0 positions{angstrom}  cell{angstrom}
       O -3.14961e+00  1.06642e+00  3.43531e-01
       H -3.84435e+00  4.45622e-01  3.61572e-01
       H -2.35029e+00  5.45411e-01  2.81404e-01
       H -3.19618e+00  2.15168e+00  5.89686e-01
4
# CELL(abcABC): 1000.00000  1000.00000  1000.00000    90.00000    90.00000    90.00000  Step:          31  Bead:       0 positions{angstrom}  cell{angstrom}
       O -3.15005e+00  1.06632e+00  3.44126e-01
       H -3.83969e+00  4.31279e-01  3.60025e-01
       H -2.34882e+00  5.63898e-01  2.78594e-01
       H -3.19546e+00  2.14924e+00  5.84596e-01
4
# CELL(abcABC): 1000.00000  1000.00000  1000.00000    90.00000    90.00000    90.00000  Step:          32  Bead:       0 positions{angstrom}  cell{angstrom}
       O -3.15033e+00  1.06632e+00  3.44654e-01
       H -3.83753e+00  4.14649e-01  3.58495e-01
       H -2.34699e+00  5.83702e-01  2.76381e-01
       H -3.19489e+00  2.14608e+00  5.79961e-01
4
# CELL(abcABC): 1000.00000  1000.00000  1000.00000    90.00000    90.00000    90.00000  Step:          33  Bead:       0 positions{angstrom}  cell{angstrom}
       O -3.15061e+00  1.06644e+00  3.45186e-01
       H -3.83645e+00  3.97790e-01  3.57601e-01
       H -2.34401e+00  6.01914e-01  2.73987e-01
       H -3.19454e+00  2.14270e+00  5.74796e-01
4
# CELL(abcABC): 1000.00000  1000.00000  1000.00000    90.00000    90.00000    90.00000  Step:          34  Bead:       0 positions{angstrom}  cell{angstrom}
       O -3.15087e+00  1.06658e+00  3.45933e-01
       H -3.83438e+00  3.82148e-01  3.55931e-01
       H -2.34134e+00  6.18504e-01  2.71216e-01
       H -3.19518e+00  2.13954e+00  5.67386e-01
4
# CELL(abcABC): 1000.00000  1000.00000  1000.00000    90.00000    90.00000    90.00000  Step:          35  Bead:       0 positions{angstrom}  cell{angstrom}
       O -3.15136e+00  1.06664e+00  3.46804e-01
       H -3.82921e+00  3.68619e-01  3.52870e-01
       H -2.33774e+00  6.34472e-01  2.68367e-01
       H -3.19608e+00  2.13621e+00  5.59462e-01
4
# CELL(abcABC): 1000.00000  1000.00000  1000.00000    90.00000    90.00000    90.00000  Step:          36  Bead:       0 positions{angstrom}  cell{angstrom}
       O -3.15215e+00  1.06655e+00  3.47821e-01
       H -3.82194e+00  3.57770e-01  3.48619e-01
       H -2.33139e+00  6.49917e-01  2.63894e-01
       H -3.19722e+00  2.13310e+00  5.52054e-01
4
# CELL(abcABC): 1000.00000  1000.00000  1000.00000    90.00000    90.00000    90.00000  Step:          37  Bead:       0 positions{angstrom}  cell{angstrom}
       O -3.15326e+00  1.06643e+00  3.48846e-01
       H -3.81205e+00  3.50575e-01  3.45468e-01
       H -2.32192e+00  6.62922e-01  2.58140e-01
       H -3.19898e+00  2.12916e+00  5.44684e-01
4
# CELL(abcABC): 1000.00000  1000.00000  1000.00000    90.00000    90.00000    90.00000  Step:          38  Bead:       0 positions{angstrom}  cell{angstrom}
       O -3.15442e+00  1.06622e+00  3.50140e-01
       H -3.80140e+00  3.45791e-01  3.40514e-01
       H -2.31038e+00  6.73262e-01  2.51379e-01
       H -3.20281e+00  2.12691e+00  5.35859e-01
4
# CELL(abcABC): 1000.00000  1000.00000  1000.00000    90.00000    90.00000    90.00000  Step:          39  Bead:       0 positions{angstrom}  cell{angstrom}
       O -3.15584e+00  1.06604e+00  3.51412e-01
       H -3.78869e+00  3.42620e-01  3.35516e-01
       H -2.29751e+00  6.81334e-01  2.44957e-01
       H -3.20579e+00  2.12485e+00  5.27086e-01
4
# CELL(abcABC): 1000.00000  1000.00000  1000.00000    90.00000    90.00000    90.00000  Step:          40  Bead:       0 positions{angstrom}  cell{angstrom}
       O -3.15727e+00  1.06572e+00  3.52551e-01
       H -3.77532e+00  3.41124e-01  3.31000e-01
       H -2.28484e+00  6.89021e-01  2.39861e-01
       H -3.20910e+00  2.12368e+00  5.18626e-01
4
# CELL(abcABC): 1000.00000  1000.00000  1000.00000    90.00000    90.00000    90.00000  Step:          41  Bead:       0 positions{angstrom}  cell{angstrom}
       O -3.15853e+00  1.06531e+00  3.53655e-01
       H -3.76245e+00  3.41006e-01  3.25638e-01
       H -2.27333e+00  6.97072e-01  2.35065e-01
       H -3.21358e+00  2.12235e+00  5.11249e-01
4
# CELL(abcABC): 1000.00000  1000.00000  1000.00000    90.00000    90.00000    90.00000  Step:          42  Bead:       0 positions{angstrom}  cell{angstrom}
       O -3.15958e+00  1.06499e+00  3.54806e-01
       H -3.74922e+00  3.38656e-01  3.19555e-01
       H -2.26444e+00  7.05531e-01  2.30882e-01
       H -3.21893e+00  2.12126e+00  5.03256e-01
4
# CELL(abcABC): 1000.00000  1000.00000  1000.00000    90.00000    90.00000    90.00000  Step:          43  Bead:       0 positions{angstrom}  cell{angstrom}
       O -3.16022e+00  1.06462e+00  3.55946e-01
       H -3.73808e+00  3.35872e-01  3.12738e-01
       H -2.25904e+00  7.15937e-01  2.27395e-01
       H -3.22541e+00  2.11949e+00  4.95457e-01
4
# CELL(abcABC): 1000.00000  1000.00000  1000.00000    90.00000    90.00000    90.00000  Step:          44  Bead:       0 positions{angstrom}  cell{angstrom}
       O -3.16036e+00  1.06434e+00  3.57053e-01
       H -3.72904e+00  3.30514e-01  3.04922e-01
       H -2.25742e+00  7.26583e-01  2.24033e-01
       H -3.23373e+00  2.11867e+00  4.89061e-01
4
# CELL(abcABC): 1000.00000  1000.00000  1000.00000    90.00000    90.00000    90.00000  Step:          45  Bead:       0 positions{angstrom}  cell{angstrom}
       O -3.15995e+00  1.06416e+00  3.58181e-01
       H -3.72296e+00  3.23226e-01  2.96087e-01
       H -2.25879e+00  7.37130e-01  2.20516e-01
       H -3.24492e+00  2.11832e+00  4.83514e-01
4
# CELL(abcABC): 1000.00000  1000.00000  1000.00000    90.00000    90.00000    90.00000  Step:          46  Bead:       0 positions{angstrom}  cell{angstrom}
       O -3.15918e+00  1.06407e+00  3.59298e-01
       H -3.71904e+00  3.14856e-01  2.86518e-01
       H -2.26336e+00  7.47121e-01  2.17154e-01
       H -3.25653e+00  2.11819e+00  4.78709e-01
4
# CELL(abcABC): 1000.00000  1000.00000  1000.00000    90.00000    90.00000    90.00000  Step:          47  Bead:       0 positions{angstrom}  cell{angstrom}
       O -3.15808e+00  1.06390e+00  3.60495e-01
       H -3.71654e+00  3.05221e-01  2.76999e-01
       H -2.26987e+00  7.57280e-01  2.13447e-01
       H -3.26996e+00  2.12026e+00  4.72938e-01
4
# CELL(abcABC): 1000.00000  1000.00000  1000.00000    90.00000    90.00000    90.00000  Step:          48  Bead:       0 positions{angstrom}  cell{angstrom}
       O -3.15679e+00  1.06383e+00  3.61635e-01
       H -3.71427e+00  2.94462e-01  2.67720e-01
       H -2.27720e+00  7.67556e-01  2.09344e-01
       H -3.28540e+00  2.12181e+00  4.68217e-01
4
# CELL(abcABC): 1000.00000  1000.00000  1000.00000    90.00000    90.00000    90.00000  Step:          49  Bead:       0 positions{angstrom}  cell{angstrom}
       O -3.15552e+00  1.06374e+00  3.62614e-01
       H -3.71180e+00  2.84130e-01  2.59146e-01
       H -2.28262e+00  7.76616e-01  2.05473e-01
       H -3.30261e+00  2.12453e+00  4.65130e-01
4
# CELL(abcABC): 1000.00000  1000.00000  1000.00000    90.00000    90.00000    90.00000  Step:          50  Bead:       0 positions{angstrom}  cell{angstrom}
       O -3.15418e+00  1.06367e+00  3.63640e-01
       H -3.70887e+00  2.75698e-01  2.50595e-01
       H -2.28781e+00  7.83659e-01  2.01590e-01
       H -3.32159e+00  2.12714e+00  4.61279e-01
4
# CELL(abcABC): 1000.00000  1000.00000  1000.00000    90.00000    90.00000    90.00000  Step:          51  Bead:       0 positions{angstrom}  cell{angstrom}
       O -3.15307e+00  1.06351e+00  3.64627e-01
       H -3.70505e+00  2.69317e-01  2.42092e-01
       H -2.29021e+00  7.89427e-01  1.97254e-01
       H -3.34076e+00  2.13024e+00  4.58453e-01
4
# CELL(abcABC): 1000.00000  1000.00000  1000.00000    90.00000    90.00000    90.00000  Step:          52  Bead:       0 positions{angstrom}  cell{angstrom}
       O -3.15220e+00  1.06337e+00  3.65668e-01
       H -3.70010e+00  2.65611e-01  2.34243e-01
       H -2.28912e+00  7.92936e-01  1.91338e-01
       H -3.36049e+00  2.13272e+00  4.55688e-01
4
# CELL(abcABC): 1000.00000  1000.00000  1000.00000    90.00000    90.00000    90.00000  Step:          53  Bead:       0 positions{angstrom}  cell{angstrom}
       O -3.15164e+00  1.06311e+00  3.66608e-01
       H -3.69303e+00  2.65469e-01  2.26258e-01
       H -2.28466e+00  7.96312e-01  1.85634e-01
       H -3.38095e+00  2.13359e+00  4.54457e-01
4
# CELL(abcABC): 1000.00000  1000.00000  1000.00000    90.00000    90.00000    90.00000  Step:          54  Bead:       0 positions{angstrom}  cell{angstrom}
       O -3.15129e+00  1.06286e+00  3.67194e-01
       H -3.68473e+00  2.67221e-01  2.20220e-01
       H -2.27756e+00  7.99161e-01  1.80466e-01
       H -3.40193e+00  2.13296e+00  4.56356e-01
4
# CELL(abcABC): 1000.00000  1000.00000  1000.00000    90.00000    90.00000    90.00000  Step:          55  Bead:       0 positions{angstrom}  cell{angstrom}
       O -3.15114e+00  1.06257e+00  3.67628e-01
       H -3.67608e+00  2.71369e-01  2.15860e-01
       H -2.26831e+00  8.01283e-01  1.76014e-01
       H -3.42224e+00  2.13129e+00  4.58288e-01
4
# CELL(abcABC): 1000.00000  1000.00000  1000.00000    90.00000    90.00000    90.00000  Step:          56  Bead:       0 positions{angstrom}  cell{angstrom}
       O -3.15111e+00  1.06221e+00  3.67919e-01
       H -3.66486e+00  2.77220e-01  2.12959e-01
       H -2.25847e+00  8.02747e-01  1.70849e-01
       H -3.44381e+00  2.12956e+00  4.61737e-01
4
# CELL(abcABC): 1000.00000  1000.00000  1000.00000    90.00000    90.00000    90.00000  Step:          57  Bead:       0 positions{angstrom}  cell{angstrom}
       O -3.15099e+00  1.06185e+00  3.68007e-01
       H -3.65241e+00  2.83885e-01  2.11296e-01
       H -2.25027e+00  8.03789e-01  1.67405e-01
       H -3.46624e+00  2.12770e+00  4.65442e-01
4
# CELL(abcABC): 1000.00000  1000.00000  1000.00000    90.00000    90.00000    90.00000  Step:          58  Bead:       0 positions{angstrom}  cell{angstrom}
       O -3.15078e+00  1.06162e+00  3.67946e-01
       H -3.64013e+00  2.88554e-01  2.09967e-01
       H -2.24320e+00  8.05188e-01  1.65635e-01
       H -3.48903e+00  2.12516e+00  4.69506e-01
4
# CELL(abcABC): 1000.00000  1000.00000  1000.00000    90.00000    90.00000    90.00000  Step:          59  Bead:       0 positions{angstrom}  cell{angstrom}
       O -3.15036e+00  1.06153e+00  3.67626e-01
       H -3.62897e+00  2.90737e-01  2.09005e-01
       H -2.23798e+00  8.07717e-01  1.66756e-01
       H -3.51209e+00  2.12195e+00  4.74423e-01
4
# CELL(abcABC): 1000.00000  1000.00000  1000.00000    90.00000    90.00000    90.00000  Step:          60  Bead:       0 positions{angstrom}  cell{angstrom}
       O -3.14968e+00  1.06172e+00  3.67222e-01
       H -3.62147e+00  2.88921e-01  2.08205e-01
       H -2.23436e+00  8.10416e-01  1.67751e-01
       H -3.53400e+00  2.11808e+00  4.80643e-01
4
# CELL(abcABC): 1000.00000  1000.00000  1000.00000    90.00000    90.00000    90.00000  Step:          61  Bead:       0 positions{angstrom}  cell{angstrom}
       O -3.14880e+00  1.06220e+00  3.66723e-01
       H -3.61580e+00  2.82708e-01  2.07179e-01
       H -2.23196e+00  8.13718e-01  1.68945e-01
       H -3.55602e+00  2.11339e+00  4.88399e-01
4
# CELL(abcABC): 1000.00000  1000.00000  1000.00000    90.00000    90.00000    90.00000  Step:          62  Bead:       0 positions{angstrom}  cell{angstrom}
       O -3.14759e+00  1.06298e+00  3.66234e-01
       H -3.61327e+00  2.72301e-01  2.05819e-01
       H -2.23314e+00  8.17364e-01  1.71089e-01
       H -3.57658e+00  2.10768e+00  4.95379e-01
4
# CELL(abcABC): 1000.00000  1000.00000  1000.00000    90.00000    90.00000    90.00000  Step:          63  Bead:       0 positions{angstrom}  cell{angstrom}
       O -3.14615e+00  1.06381e+00  3.65467e-01
       H -3.61197e+00  2.60826e-01  2.05279e-01
       H -2.23658e+00  8.20975e-01  1.74370e-01
       H -3.59726e+00  2.10248e+00  5.04815e-01
4
# CELL(abcABC): 1000.00000  1000.00000  1000.00000    90.00000    90.00000    90.00000  Step:          64  Bead:       0 positions{angstrom}  cell{angstrom}
       O -3.14468e+00  1.06468e+00  3.64535e-01
       H -3.61016e+00  2.49092e-01  2.06321e-01
       H -2.24083e+00  8.24892e-01  1.78772e-01
       H -3.61811e+00  2.09640e+00  5.14165e-01
4
# CELL(abcABC): 1000.00000  1000.00000  1000.00000    90.00000    90.00000    90.00000  Step:          65  Bead:       0 positions{angstrom}  cell{angstrom}
       O -3.14327e+00  1.06547e+00  3.63507e-01
       H -3.60908e+00  2.38834e-01  2.07068e-01
       H -2.24456e+00  8.30413e-01  1.83861e-01
       H -3.63782e+00  2.08856e+00  5.24652e-01
4
# CELL(abcABC): 1000.00000  1000.00000  1000.00000    90.00000    90.00000    90.00000  Step:          66  Bead:       0 positions{angstrom}  cell{angstrom}
       O -3.14205e+00  1.06607e+00  3.62277e-01
       H -3.60744e+00  2.33241e-01  2.09418e-01
       H -2.24726e+00  8.34651e-01  1.89859e-01
       H -3.65625e+00  2.08038e+00  5.35824e-01
4
# CELL(abcABC): 1000.00000  1000.00000  1000.00000    90.00000    90.00000    90.00000  Step:          67  Bead:       0 positions{angstrom}  cell{angstrom}
       O -3.14099e+00  1.06663e+00  3.60950e-01
       H -3.60458e+00  2.29560e-01  2.11872e-01
       H -2.24766e+00  8.39039e-01  1.96760e-01
       H -3.67544e+00  2.07091e+00  5.47534e-01
4
# CELL(abcABC): 1000.00000  1000.00000  1000.00000    90.00000    90.00000    90.00000  Step:          68  Bead:       0 positions{angstrom}  cell{angstrom}
       O -3.14026e+00  1.06700e+00  3.59694e-01
       H -3.59998e+00  2.28661e-01  2.14863e-01
       H -2.24532e+00  8.43522e-01  2.02298e-01
       H -3.69405e+00  2.06147e+00  5.58942e-01
4
# CELL(abcABC): 1000.00000  1000.00000  1000.00000    90.00000    90.00000    90.00000  Step:          69  Bead:       0 positions{angstrom}  cell{angstrom}
       O -3.13975e+00  1.06735e+00  3.58203e-01
       H -3.59467e+00  2.29066e-01  2.20175e-01
       H -2.24116e+00  8.48185e-01  2.08877e-01
       H -3.71155e+00  2.05082e+00  5.70718e-01
4
# CELL(abcABC): 1000.00000  1000.00000  1000.00000    90.00000    90.00000    90.00000  Step:          70  Bead:       0 positions{angstrom}  cell{angstrom}
       O -3.13967e+00  1.06745e+00  3.56680e-01
       H -3.58806e+00  2.32402e-01  2.25067e-01
       H -2.23445e+00  8.53839e-01  2.15266e-01
       H -3.72610e+00  2.04022e+00  5.83602e-01
4
# CELL(abcABC): 1000.00000  1000.00000  1000.00000    90.00000    90.00000    90.00000  Step:          71  Bead:       0 positions{angstrom}  cell{angstrom}
       O -3.13976e+00  1.06755e+00  3.55211e-01
       H -3.58159e+00  2.36065e-01  2.28833e-01
       H -2.22643e+00  8.59394e-01  2.21314e-01
       H -3.73917e+00  2.02938e+00  5.97113e-01
4
# CELL(abcABC): 1000.00000  1000.00000  1000.00000    90.00000    90.00000    90.00000  Step:          72  Bead:       0 positions{angstrom}  cell{angstrom}
       O -3.14003e+00  1.06752e+00  3.53693e-01
       H -3.57462e+00  2.40453e-01  2.32908e-01
       H -2.21731e+00  8.65741e-01  2.28263e-01
       H -3.75097e+00  2.01919e+00  6.10178e-01
4
# CELL(abcABC): 1000.00000  1000.00000  1000.00000    90.00000    90.00000    90.00000  Step:          73  Bead:       0 positions{angstrom}  cell{angstrom}
       O -3.14032e+00  1.06753e+00  3.52264e-01
       H -3.56809e+00  2.44016e-01  2.36625e-01
       H -2.20828e+00  8.73277e-01  2.35453e-01
       H -3.76203e+00  2.00786e+00  6.21957e-01
4
# CELL(abcABC): 1000.00000  1000.00000  1000.00000    90.00000    90.00000    90.00000  Step:          74  Bead:       0 positions{angstrom}  cell{angstrom}
       O -3.14060e+00  1.06756e+00  3.51030e-01
       H -3.56195e+00  2.45958e-01  2.38625e-01
       H -2.20030e+00  8.81786e-01  2.41730e-01
       H -3.77163e+00  1.99702e+00  6.33267e-01
4
# CELL(abcABC): 1000.00000  1000.00000  1000.00000    90.00000    90.00000    90.00000  Step:          75  Bead:       0 positions{angstrom}  cell{angstrom}
       O -3.14063e+00  1.06773e+00  3.49851e-01
       H -3.55726e+00  2.44431e-01  2.39497e-01
       H -2.19478e+00  8.90705e-01  2.49022e-01
       H -3.78140e+00  1.98691e+00  6.43821e-01
4
# CELL(abcABC): 1000.00000  1000.00000  1000.00000    90.00000    90.00000    90.00000  Step:          76  Bead:       0 positions{angstrom}  cell{angstrom}
       O -3.14061e+00  1.06789e+00  3.48613e-01
       H -3.55266e+00  2.40488e-01  2.40820e-01
       H -2.19172e+00  9.00653e-01  2.56631e-01
       H -3.78937e+00  1.97828e+00  6.54546e-01
4
# CELL(abcABC): 1000.00000  1000.00000  1000.00000    90.00000    90.00000    90.00000  Step:          77  Bead:       0 positions{angstrom}  cell{angstrom}
       O -3.14038e+00  1.06814e+00  3.47410e-01
       H -3.54886e+00  2.34953e-01  2.41523e-01
       H -2.19158e+00  9.11776e-01  2.65005e-01
       H -3.79696e+00  1.96879e+00  6.64558e-01
4
# CELL(abcABC): 1000.00000  1000.00000  1000.00000    90.00000    90.00000    90.00000  Step:          78  Bead:       0 positions{angstrom}  cell{angstrom}
       O -3.14000e+00  1.06849e+00  3.46453e-01
       H -3.54662e+00  2.26721e-01  2.40689e-01
       H -2.19274e+00  9.24233e-01  2.73170e-01
       H -3.80400e+00  1.95901e+00  6.72413e-01
4
# CELL(abcABC): 1000.00000  1000.00000  1000.00000    90.00000    90.00000    90.00000  Step:          79  Bead:       0 positions{angstrom}  cell{angstrom}
       O -3.13967e+00  1.06899e+00  3.45554e-01
       H -3.54488e+00  2.17940e-01  2.40599e-01
       H -2.19414e+00  9.36312e-01  2.81048e-01
       H -3.80968e+00  1.94780e+00  6.78894e-01
4
# CELL(abcABC): 1000.00000  1000.00000  1000.00000    90.00000    90.00000    90.00000  Step:          80  Bead:       0 positions{angstrom}  cell{angstrom}
       O -3.13948e+00  1.06950e+00  3.44642e-01
       H -3.54202e+00  2.09407e-01  2.40086e-01
       H -2.19604e+00  9.48391e-01  2.89783e-01
       H -3.81368e+00  1.93607e+00  6.85149e-01
4
# CELL(abcABC): 1000.00000  1000.00000  1000.00000    90.00000    90.00000    90.00000  Step:          81  Bead:       0 positions{angstrom}  cell{angstrom}
       O -3.13947e+00  1.06983e+00  3.43891e-01
       H -3.53587e+00  2.02643e-01  2.38591e-01
       H -2.19878e+00  9.62450e-01  2.98424e-01
       H -3.81723e+00  1.92353e+00  6.89933e-01
4
# CELL(abcABC): 1000.00000  1000.00000  1000.00000    90.00000    90.00000    90.00000  Step:          82  Bead:       0 positions{angstrom}  cell{angstrom}
       O -3.13963e+00  1.07022e+00  3.43146e-01
       H -3.52755e+00  1.96740e-01  2.37528e-01
       H -2.20075e+00  9.75315e-01  3.06636e-01
       H -3.82099e+00  1.91043e+00  6.94605e-01
4
# CELL(abcABC): 1000.00000  1000.00000  1000.00000    90.00000    90.00000    90.00000  Step:          83  Bead:       0 positions{angstrom}  cell{angstrom}
       O -3.14004e+00  1.07044e+00  3.42509e-01
       H -3.51761e+00  1.93037e-01  2.36565e-01
       H -2.20180e+00  9.88530e-01  3.14419e-01
       H -3.82343e+00  1.89746e+00  6.97898e-01
4
# CELL(abcABC): 1000.00000  1000.00000  1000.00000    90.00000    90.00000    90.00000  Step:          84  Bead:       0 positions{angstrom}  cell{angstrom}
       O -3.14064e+00  1.07055e+00  3.42016e-01
       H -3.50506e+00  1.90362e-01  2.34221e-01
       H -2.20269e+00  1.00189e+00  3.21590e-01
       H -3.82559e+00  1.88499e+00  7.00893e-01
4
# CELL(abcABC): 1000.00000  1000.00000  1000.00000    90.00000    90.00000    90.00000  Step:          85  Bead:       0 positions{angstrom}  cell{angstrom}