4
# CELL(abcABC): 1000.00000  1000.00000  1000.00000    90.00000    90.00000    90.00000  Step:           0  Bead:       0 positions{angstrom}  cell{angstrom}
       O -3.14499e+00  1.06672e+00  3.54783e-01
       H -3.88821e+00  1.24013e+00  8.72020e-01
       H -3.02798e+00  1.02408e-01  2.31872e-01
       H -2.54815e+00  1.79577e+00 -4.98297e-02
4
# CELL(abcABC): 1000.00000  1000.00000  1000.00000    90.00000    90.00000    90.00000  Step:           1  Bead:       0 positions{angstrom}  cell{angstrom}
       O -3.14319e+00  1.06685e+00  3.54163e-01
       H -3.89980e+00  1.23363e+00  8.77414e-01
       H -3.02781e+00  1.03662e-01  2.32981e-01
       H -2.56527e+00  1.79894e+00 -4.64830e-02
4
# CELL(abcABC): 1000.00000  1000.00000  1000.00000    90.00000    90.00000    90.00000  Step:           2  Bead:       0 positions{angstrom}  cell{angstrom}
       O -3.14139e+00  1.06666e+00  3.53488e-01
       H -3.91365e+00  1.22841e+00  8.84413e-01
       H -3.02585e+00  1.08592e-01  2.33885e-01
       H -2.58198e+00  1.80233e+00 -4.36833e-02
4
# CELL(abcABC): 1000.00000  1000.00000  1000.00000    90.00000    90.00000    90.00000  Step:           3  Bead:       0 positions{angstrom}  cell{angstrom}
       O -3.13961e+00  1.06623e+00  3.52808e-01
       H -3.92711e+00  1.22268e+00  8.92969e-01
       H -3.02383e+00  1.17762e-01  2.35113e-01
       H -2.59879e+00  1.80558e+00 -4.26673e-02
4
# CELL(abcABC): 1000.00000  1000.00000  1000.00000    90.00000    90.00000    90.00000  Step:           4  Bead:       0 positions{angstrom}  cell{angstrom}
       O -3.13806e+00  1.06568e+00  3.52391e-01
       H -3.93914e+00  1.21602e+00  8.98999e-01
       H -3.02061e+00  1.29635e-01  2.35417e-01
       H -2.61456e+00  1.80912e+00 -4.23917e-02
4
# CELL(abcABC): 1000.00000  1000.00000  1000.00000    90.00000    90.00000    90.00000  Step:           5  Bead:       0 positions{angstrom}  cell{angstrom}
       O -3.13674e+00  1.06494e+00  3.52291e-01
       H -3.94897e+00  1.20938e+00  9.02425e-01
       H -3.01725e+00  1.43182e-01  2.36054e-01
       H -2.62915e+00  1.81399e+00 -4.48561e-02
4
# CELL(abcABC): 1000.00000  1000.00000  1000.00000    90.00000    90.00000    90.00000  Step:           6  Bead:       0 positions{angstrom}  cell{angstrom}
       O -3.13570e+00  1.06433e+00  3.52568e-01
       H -3.95485e+00  1.20280e+00  9.01969e-01
       H -3.01342e+00  1.53684e-01  2.34776e-01
       H -2.64354e+00  1.81978e+00 -4.75284e-02
4
# CELL(abcABC): 1000.00000  1000.00000  1000.00000    90.00000    90.00000    90.00000  Step:           7  Bead:       0 positions{angstrom}  cell{angstrom}
       O -3.13515e+00  1.06378e+00  3.53027e-01
       H -3.95500e+00  1.19594e+00  8.99645e-01
       H -3.00846e+00  1.60706e-01  2.33178e-01
       H -2.65705e+00  1.82839e+00 -5.08925e-02
4
# CELL(abcABC): 1000.00000  1000.00000  1000.00000    90.00000    90.00000    90.00000  Step:           8  Bead:       0 positions{angstrom}  cell{angstrom}
       O -3.13513e+00  1.06347e+00  3.53904e-01
       H -3.95002e+00  1.18879e+00  8.93668e-01
       H -3.00100e+00  1.62523e-01  2.29717e-01
       H -2.66986e+00  1.83862e+00 -5.53769e-02
4
# CELL(abcABC): 1000.00000  1000.00000  1000.00000    90.00000    90.00000    90.00000  Step:           9  Bead:       0 positions{angstrom}  cell{angstrom}
       O -3.13553e+00  1.06349e+00  3.54966e-01
       H -3.94156e+00  1.18057e+00  8.86390e-01
       H -2.99098e+00  1.60035e-01  2.25670e-01
       H -2.68198e+00  1.84895e+00 -6.08946e-02
4
# CELL(abcABC): 1000.00000  1000.00000  1000.00000    90.00000    90.00000    90.00000  Step:          10  Bead:       0 positions{angstrom}  cell{angstrom}
       O -3.13621e+00  1.06365e+00  3.56380e-01
       H -3.93069e+00  1.17223e+00  8.76786e-01
       H -2.97938e+00  1.54504e-01  2.19883e-01
       H -2.69358e+00  1.86028e+00 -6.79528e-02
4
# CELL(abcABC): 1000.00000  1000.00000  1000.00000    90.00000    90.00000    90.00000  Step:          11  Bead:       0 positions{angstrom}  cell{angstrom}
       O -3.13703e+00  1.06395e+00  3.58059e-01
       H -3.91896e+00  1.16471e+00  8.65503e-01
       H -2.96794e+00  1.46292e-01  2.12943e-01
       H -2.70374e+00  1.87127e+00 -7.63779e-02
4
# CELL(abcABC): 1000.00000  1000.00000  1000.00000    90.00000    90.00000    90.00000  Step:          12  Bead:       0 positions{angstrom}  cell{angstrom}
       O -3.13795e+00  1.06434e+00  3.59805e-01
       H -3.90744e+00  1.15738e+00  8.54981e-01
       H -2.95590e+00  1.36160e-01  2.04608e-01
       H -2.71270e+00  1.88249e+00 -8.52427e-02
4
# CELL(abcABC): 1000.00000  1000.00000  1000.00000    90.00000    90.00000    90.00000  Step:          13  Bead:       0 positions{angstrom}  cell{angstrom}
       O -3.13872e+00  1.06468e+00  3.61380e-01
       H -3.89976e+00  1.15125e+00  8.47409e-01
       H -2.94242e+00  1.27062e-01  1.96302e-01
       H -2.72177e+00  1.89230e+00 -9.43593e-02
4
# CELL(abcABC): 1000.00000  1000.00000  1000.00000    90.00000    90.00000    90.00000  Step:          14  Bead:       0 positions{angstrom}  cell{angstrom}
       O -3.13916e+00  1.06485e+00  3.62638e-01
       H -3.89651e+00  1.14561e+00  8.44262e-01
       H -2.92881e+00  1.21371e-01  1.88416e-01
       H -2.73160e+00  1.90096e+00 -1.03304e-01
4
# CELL(abcABC): 1000.00000  1000.00000  1000.00000    90.00000    90.00000    90.00000  Step:          15  Bead:       0 positions{angstrom}  cell{angstrom}
       O -3.13905e+00  1.06470e+00  3.63318e-01
       H -3.90201e+00  1.14022e+00  8.47976e-01
       H -2.91664e+00  1.20131e-01  1.81525e-01
       H -2.73990e+00  1.90995e+00 -1.10917e-01
4
# CELL(abcABC): 1000.00000  1000.00000  1000.00000    90.00000    90.00000    90.00000  Step:          16  Bead:       0 positions{angstrom}  cell{angstrom}
       O -3.13854e+00  1.06427e+00  3.63635e-01
       H -3.91235e+00  1.13499e+00  8.55517e-01
       H -2.90582e+00  1.24428e-01  1.75730e-01
       H -2.74851e+00  1.91774e+00 -1.17694e-01
4
# CELL(abcABC): 1000.00000  1000.00000  1000.00000    90.00000    90.00000    90.00000  Step:          17  Bead:       0 positions{angstrom}  cell{angstrom}
       O -3.13759e+00  1.06366e+00  3.63641e-01
       H -3.92595e+00  1.13048e+00  8.66253e-01
       H -2.89736e+00  1.33744e-01  1.70080e-01
       H -2.75852e+00  1.92268e+00 -1.22872e-01
4
# CELL(abcABC): 1000.00000  1000.00000  1000.00000    90.00000    90.00000    90.00000  Step:          18  Bead:       0 positions{angstrom}  cell{angstrom}
       O -3.13639e+00  1.06285e+00  3.63434e-01
       H -3.94210e+00  1.12672e+00  8.78593e-01
       H -2.88912e+00  1.46663e-01  1.65366e-01
       H -2.76959e+00  1.92633e+00 -1.27211e-01
4
# CELL(abcABC): 1000.00000  1000.00000  1000.00000    90.00000    90.00000    90.00000  Step:          19  Bead:       0 positions{angstrom}  cell{angstrom}
       O -3.13525e+00  1.06209e+00  3.63114e-01
       H -3.95680e+00  1.12247e+00  8.91161e-01
       H -2.88277e+00  1.61354e-01  1.60789e-01
       H -2.77933e+00  1.92800e+00 -1.30136e-01
4
# CELL(abcABC): 1000.00000  1000.00000  1000.00000    90.00000    90.00000    90.00000  Step:          20  Bead:       0 positions{angstrom}  cell{angstrom}
       O -3.13423e+00  1.06149e+00  3.62869e-01
       H -3.96825e+00  1.11807e+00  9.00695e-01
       H -2.87815e+00  1.76886e-01  1.56947e-01
       H -2.78872e+00  1.92641e+00 -1.31938e-01
4
# CELL(abcABC): 1000.00000  1000.00000  1000.00000    90.00000    90.00000    90.00000  Step:          21  Bead:       0 positions{angstrom}  cell{angstrom}
       O -3.13354e+00  1.06112e+00  3.62812e-01
       H -3.97549e+00  1.11243e+00  9.06396e-01
       H -2.87221e+00  1.91870e-01  1.54155e-01
       H -2.79837e+00  1.92284e+00 -1.33937e-01
4
# CELL(abcABC): 1000.00000  1000.00000  1000.00000    90.00000    90.00000    90.00000  Step:          22  Bead:       0 positions{angstrom}  cell{angstrom}
       O -3.13327e+00  1.06103e+00  3.63043e-01
       H -3.97844e+00  1.10511e+00  9.09796e-01
       H -2.86381e+00  2.04198e-01  1.49444e-01
       H -2.80810e+00  1.91933e+00 -1.36291e-01
4
# CELL(abcABC): 1000.00000  1000.00000  1000.00000    90.00000    90.00000    90.00000  Step:          23  Bead:       0 positions{angstrom}  cell{angstrom}
       O -3.13345e+00  1.06134e+00  3.63700e-01
       H -3.97551e+00  1.09754e+00  9.09141e-01
       H -2.85369e+00  2.12849e-01  1.44505e-01
       H -2.81832e+00  1.91339e+00 -1.41121e-01
4
# CELL(abcABC): 1000.00000  1000.00000  1000.00000    90.00000    90.00000    90.00000  Step:          24  Bead:       0 positions{angstrom}  cell{angstrom}
       O -3.13407e+00  1.06196e+00  3.64606e-01
       H -3.96661e+00  1.08825e+00  9.05080e-01
       H -2.84209e+00  2.17873e-01  1.39092e-01
       H -2.82903e+00  1.90766e+00 -1.46027e-01
4
# CELL(abcABC): 1000.00000  1000.00000  1000.00000    90.00000    90.00000    90.00000  Step:          25  Bead:       0 positions{angstrom}  cell{angstrom}
       O -3.13499e+00  1.06306e+00  3.65620e-01
       H -3.95335e+00  1.07739e+00  8.99105e-01
       H -2.82978e+00  2.17772e-01  1.33239e-01
       H -2.83996e+00  1.90127e+00 -1.50297e-01
4
# CELL(abcABC): 1000.00000  1000.00000  1000.00000    90.00000    90.00000    90.00000  Step:          26  Bead:       0 positions{angstrom}  cell{angstrom}
       O -3.13612e+00  1.06451e+00  3.66725e-01
       H -3.93720e+00  1.06545e+00  8.90692e-01
       H -2.81646e+00  2.14000e-01  1.26903e-01
       H -2.85141e+00  1.89392e+00 -1.53094e-01
4
# CELL(abcABC): 1000.00000  1000.00000  1000.00000    90.00000    90.00000    90.00000  Step:          27  Bead:       0 positions{angstrom}  cell{angstrom}
       O -3.13741e+00  1.06608e+00  3.67861e-01
       H -3.92046e+00  1.05419e+00  8.81251e-01
       H -2.80302e+00  2.07665e-01  1.20441e-01
       H -2.86111e+00  1.88659e+00 -1.55227e-01
4
# CELL(abcABC): 1000.00000  1000.00000  1000.00000    90.00000    90.00000    90.00000  Step:          28  Bead:       0 positions{angstrom}  cell{angstrom}
       O -3.13851e+00  1.06764e+00  3.68809e-01
       H -3.90654e+00  1.04120e+00  8.72944e-01
       H -2.78961e+00  2.01604e-01  1.15001e-01
       H -2.87113e+00  1.88097e+00 -1.56518e-01
4
# CELL(abcABC): 1000.00000  1000.00000  1000.00000    90.00000    90.00000    90.00000  Step:          29  Bead:       0 positions{angstrom}  cell{angstrom}
       O -3.13929e+00  1.06899e+00  3.69525e-01
       H -3.89609e+00  1.02834e+00  8.66042e-01
       H -2.77842e+00  1.97296e-01  1.10808e-01
       H -2.88028e+00  1.87662e+00 -1.56798e-01
4
# CELL(abcABC): 1000.00000  1000.00000  1000.00000    90.00000    90.00000    90.00000  Step:          30  Bead:       0 positions{angstrom}  cell{angstrom}
       O -3.13960e+00  1.06997e+00  3.69869e-01
       H -3.89138e+00  1.01626e+00  8.63984e-01
       H -2.76926e+00  1.95950e-01  1.08607e-01
       H -2.88922e+00  1.87448e+00 -1.57987e-01
4
# CELL(abcABC): 1000.00000  1000.00000  1000.00000    90.00000    90.00000    90.00000  Step:          31  Bead:       0 positions{angstrom}  cell{angstrom}
       O -3.13951e+00  1.07050e+00  3.69900e-01
       H -3.89196e+00  1.00407e+00  8.66689e-01
       H -2.76157e+00  1.99413e-01  1.07502e-01
       H -2.89779e+00  1.87475e+00 -1.60085e-01
4
# CELL(abcABC): 1000.00000  1000.00000  1000.00000    90.00000    90.00000    90.00000  Step:          32  Bead:       0 positions{angstrom}  cell{angstrom}
       O -3.13889e+00  1.07078e+00  3.69406e-01
       H -3.89982e+00  9.89751e-01  8.74252e-01
       H -2.75547e+00  2.07926e-01  1.09318e-01
       H -2.90593e+00  1.87619e+00 -1.61622e-01
4
# CELL(abcABC): 1000.00000  1000.00000  1000.00000    90.00000    90.00000    90.00000  Step:          33  Bead:       0 positions{angstrom}  cell{angstrom}
       O -3.13788e+00  1.07086e+00  3.68558e-01
       H -3.91261e+00  9.74602e-01  8.85968e-01
       H -2.75086e+00  2.18680e-01  1.13111e-01
       H -2.91365e+00  1.87928e+00 -1.63665e-01
4
# CELL(abcABC): 1000.00000  1000.00000  1000.00000    90.00000    90.00000    90.00000  Step:          34  Bead:       0 positions{angstrom}  cell{angstrom}
       O -3.13658e+00  1.07071e+00  3.67703e-01
       H -3.92662e+00  9.59406e-01  8.98573e-01
       H -2.74945e+00  2.31195e-01  1.18369e-01
       H -2.92169e+00  1.88437e+00 -1.67970e-01
4
# CELL(abcABC): 1000.00000  1000.00000  1000.00000    90.00000    90.00000    90.00000  Step:          35  Bead:       0 positions{angstrom}  cell{angstrom}
       O -3.13536e+00  1.07034e+00  3.66893e-01
       H -3.93800e+00  9.44620e-01  9.09668e-01
       H -2.74994e+00  2.45473e-01  1.24920e-01
       H -2.92931e+00  1.89073e+00 -1.72759e-01
4
# CELL(abcABC): 1000.00000  1000.00000  1000.00000    90.00000    90.00000    90.00000  Step:          36  Bead:       0 positions{angstrom}  cell{angstrom}
       O -3.13438e+00  1.06982e+00  3.66267e-01
       H -3.94628e+00  9.30689e-01  9.18088e-01
       H -2.74999e+00  2.59998e-01  1.30592e-01
       H -2.93648e+00  1.89836e+00 -1.76900e-01
4
# CELL(abcABC): 1000.00000  1000.00000  1000.00000    90.00000    90.00000    90.00000  Step:          37  Bead:       0 positions{angstrom}  cell{angstrom}
       O -3.13383e+00  1.06943e+00  3.65782e-01
       H -3.94976e+00  9.18710e-01  9.25161e-01
       H -2.74813e+00  2.70825e-01  1.35038e-01
       H -2.94354e+00  1.90575e+00 -1.80733e-01
4
# CELL(abcABC): 1000.00000  1000.00000  1000.00000    90.00000    90.00000    90.00000  Step:          38  Bead:       0 positions{angstrom}  cell{angstrom}
       O -3.13360e+00  1.06921e+00  3.65767e-01
       H -3.94934e+00  9.07868e-01  9.27392e-01
       H -2.74387e+00  2.75896e-01  1.37948e-01
       H -2.95193e+00  1.91500e+00 -1.85632e-01
4
# CELL(abcABC): 1000.00000  1000.00000  1000.00000    90.00000    90.00000    90.00000  Step:          39  Bead:       0 positions{angstrom}  cell{angstrom}
       O -3.13404e+00  1.06935e+00  3.65954e-01
       H -3.94310e+00  8.97912e-01  9.26339e-01
       H -2.73641e+00  2.74588e-01  1.40308e-01
       H -2.95869e+00  1.92410e+00 -1.89913e-01
4
# CELL(abcABC): 1000.00000  1000.00000  1000.00000    90.00000    90.00000    90.00000  Step:          40  Bead:       0 positions{angstrom}  cell{angstrom}
       O -3.13498e+00  1.06965e+00  3.66213e-01
       H -3.93217e+00  8.89621e-01  9.22739e-01
       H -2.72603e+00  2.68876e-01  1.43044e-01
       H -2.96496e+00  1.93331e+00 -1.93152e-01
4
# CELL(abcABC): 1000.00000  1000.00000  1000.00000    90.00000    90.00000    90.00000  Step:          41  Bead:       0 positions{angstrom}  cell{angstrom}
       O -3.13629e+00  1.07007e+00  3.66586e-01
       H -3.91784e+00  8.83522e-01  9.15855e-01
       H -2.71297e+00  2.60466e-01  1.45286e-01
       H -2.97157e+00  1.94121e+00 -1.94431e-01
4
# CELL(abcABC): 1000.00000  1000.00000  1000.00000    90.00000    90.00000    90.00000  Step:          42  Bead:       0 positions{angstrom}  cell{angstrom}
       O -3.13793e+00  1.07067e+00  3.67065e-01
       H -3.89985e+00  8.76792e-01  9.06823e-01
       H -2.69846e+00  2.50929e-01  1.47636e-01
       H -2.97818e+00  1.94793e+00 -1.95360e-01
4
# CELL(abcABC): 1000.00000  1000.00000  1000.00000    90.00000    90.00000    90.00000  Step:          43  Bead:       0 positions{angstrom}  cell{angstrom}
       O -3.13956e+00  1.07117e+00  3.67481e-01
       H -3.88199e+00  8.71696e-01  8.97081e-01
       H -2.68358e+00  2.43532e-01  1.50493e-01
       H -2.98502e+00  1.95237e+00 -1.95070e-01
4
# CELL(abcABC): 1000.00000  1000.00000  1000.00000    90.00000    90.00000    90.00000  Step:          44  Bead:       0 positions{angstrom}  cell{angstrom}
       O -3.14096e+00  1.07163e+00  3.67684e-01
       H -3.86622e+00  8.66185e-01  8.88071e-01
       H -2.66922e+00  2.38108e-01  1.53556e-01
       H -2.99280e+00  1.95603e+00 -1.92348e-01
4
# CELL(abcABC): 1000.00000  1000.00000  1000.00000    90.00000    90.00000    90.00000  Step:          45  Bead:       0 positions{angstrom}  cell{angstrom}
       O -3.14188e+00  1.07200e+00  3.67615e-01
       H -3.85563e+00  8.60449e-01  8.81434e-01
       H -2.65546e+00  2.35647e-01  1.56752e-01
       H -3.00255e+00  1.95844e+00 -1.87805e-01
4
# CELL(abcABC): 1000.00000  1000.00000  1000.00000    90.00000    90.00000    90.00000  Step:          46  Bead:       0 positions{angstrom}  cell{angstrom}
       O -3.14232e+00  1.07224e+00  3.67168e-01
       H -3.85139e+00  8.54479e-01  8.78587e-01
       H -2.64359e+00  2.36731e-01  1.60546e-01
       H -3.01179e+00  1.95943e+00 -1.81669e-01
4
# CELL(abcABC): 1000.00000  1000.00000  1000.00000    90.00000    90.00000    90.00000  Step:          47  Bead:       0 positions{angstrom}  cell{angstrom}
       O -3.14215e+00  1.07221e+00  3.66423e-01
       H -3.85383e+00  8.47190e-01  8.80579e-01
       H -2.63365e+00  2.42795e-01  1.64540e-01
       H -3.02193e+00  1.96114e+00 -1.75831e-01
4
# CELL(abcABC): 1000.00000  1000.00000  1000.00000    90.00000    90.00000    90.00000  Step:          48  Bead:       0 positions{angstrom}  cell{angstrom}
       O -3.14145e+00  1.07209e+00  3.65301e-01
       H -3.86158e+00  8.37982e-01  8.86827e-01
       H -2.62577e+00  2.54072e-01  1.68728e-01
       H -3.03316e+00  1.96101e+00 -1.68448e-01
4
# CELL(abcABC): 1000.00000  1000.00000  1000.00000    90.00000    90.00000    90.00000  Step:          49  Bead:       0 positions{angstrom}  cell{angstrom}
       O -3.14043e+00  1.07178e+00  3.63812e-01
       H -3.87307e+00  8.27897e-01  8.96221e-01
       H -2.61842e+00  2.69032e-01  1.73706e-01
       H -3.04522e+00  1.96104e+00 -1.59181e-01
4
# CELL(abcABC): 1000.00000  1000.00000  1000.00000    90.00000    90.00000    90.00000  Step:          50  Bead:       0 positions{angstrom}  cell{angstrom}
       O -3.13907e+00  1.07136e+00  3.62312e-01
       H -3.88626e+00  8.18173e-01  9.06142e-01
       H -2.61397e+00  2.86197e-01  1.79102e-01
       H -3.05812e+00  1.96029e+00 -1.50698e-01
4
# CELL(abcABC): 1000.00000  1000.00000  1000.00000    90.00000    90.00000    90.00000  Step:          51  Bead:       0 positions{angstrom}  cell{angstrom}
       O -3.13775e+00  1.07078e+00  3.60865e-01
       H -3.89890e+00  8.08925e-01  9.14754e-01
       H -2.61015e+00  3.05151e-01  1.84254e-01
       H -3.07025e+00  1.95975e+00 -1.41487e-01
4
# CELL(abcABC): 1000.00000  1000.00000  1000.00000    90.00000    90.00000    90.00000  Step:          52  Bead:       0 positions{angstrom}  cell{angstrom}
       O -3.13664e+00  1.07022e+00  3.59697e-01
       H -3.90917e+00  8.00867e-01  9.21144e-01
       H -2.60580e+00  3.23267e-01  1.87690e-01
       H -3.08199e+00  1.95869e+00 -1.32775e-01
4
# CELL(abcABC): 1000.00000  1000.00000  1000.00000    90.00000    90.00000    90.00000  Step:          53  Bead:       0 positions{angstrom}  cell{angstrom}
       O -3.13593e+00  1.06961e+00  3.58764e-01
       H -3.91476e+00  7.95089e-01  9.23439e-01
       H -2.59984e+00  3.40837e-01  1.90763e-01
       H -3.09355e+00  1.95649e+00 -1.23338e-01
4
# CELL(abcABC): 1000.00000  1000.00000  1000.00000    90.00000    90.00000    90.00000  Step:          54  Bead:       0 positions{angstrom}  cell{angstrom}
       O -3.13571e+00  1.06916e+00  3.57895e-01
       H -3.91567e+00  7.90306e-01  9.23212e-01
       H -2.59126e+00  3.55602e-01  1.93298e-01
       H -3.10471e+00  1.95369e+00 -1.11843e-01
4
# CELL(abcABC): 1000.00000  1000.00000  1000.00000    90.00000    90.00000    90.00000  Step:          55  Bead:       0 positions{angstrom}  cell{angstrom}
       O -3.13611e+00  1.06883e+00  3.57341e-01
       H -3.91220e+00  7.87533e-01  9.20097e-01
       H -2.57875e+00  3.65965e-01  1.95029e-01
       H -3.11432e+00  1.95127e+00 -1.01674e-01
4
# CELL(abcABC): 1000.00000  1000.00000  1000.00000    90.00000    90.00000    90.00000  Step:          56  Bead:       0 positions{angstrom}  cell{angstrom}
       O -3.13716e+00  1.06857e+00  3.57125e-01
       H -3.90184e+00  7.86708e-01  9.14209e-01
       H -2.56250e+00  3.71499e-01  1.94264e-01
       H -3.12434e+00  1.95068e+00 -9.15825e-02
4
# CELL(abcABC): 1000.00000  1000.00000  1000.00000    90.00000    90.00000    90.00000  Step:          57  Bead:       0 positions{angstrom}  cell{angstrom}
       O -3.13867e+00  1.06832e+00  3.57140e-01
       H -3.88608e+00  7.87719e-01  9.06246e-01
       H -2.54415e+00  3.72919e-01  1.93389e-01
       H -3.13444e+00  1.95220e+00 -8.29878e-02
4
# CELL(abcABC): 1000.00000  1000.00000  1000.00000    90.00000    90.00000    90.00000  Step:          58  Bead:       0 positions{angstrom}  cell{angstrom}
       O -3.14056e+00  1.06811e+00  3.57340e-01
       H -3.86697e+00  7.88553e-01  8.96799e-01
       H -2.52347e+00  3.72144e-01  1.92514e-01
       H -3.14422e+00  1.95553e+00 -7.58407e-02
4
# CELL(abcABC): 1000.00000  1000.00000  1000.00000    90.00000    90.00000    90.00000  Step:          59  Bead:       0 positions{angstrom}  cell{angstrom}
       O -3.14258e+00  1.06779e+00  3.57471e-01
       H -3.84686e+00  7.89147e-01  8.87860e-01
       H -2.50204e+00  3.71412e-01  1.93140e-01
       H -3.15370e+00  1.96071e+00 -6.96071e-02
4
# CELL(abcABC): 1000.00000  1000.00000  1000.00000    90.00000    90.00000    90.00000  Step:          60  Bead:       0 positions{angstrom}  cell{angstrom}
       O -3.14446e+00  1.06745e+00  3.57538e-01
       H -3.83030e+00  7.87915e-01  8.81459e-01
       H -2.48078e+00  3.71161e-01  1.92586e-01
       H -3.16159e+00  1.96764e+00 -6.37135e-02
4
# CELL(abcABC): 1000.00000  1000.00000  1000.00000    90.00000    90.00000    90.00000  Step:          61  Bead:       0 positions{angstrom}  cell{angstrom}
       O -3.14605e+00  1.06708e+00  3.57378e-01
       H -3.81768e+00  7.83669e-01  8.79086e-01
       H -2.46058e+00  3.73048e-01  1.91527e-01
       H -3.16931e+00  1.97591e+00 -5.77400e-02
4
# CELL(abcABC): 1000.00000  1000.00000  1000.00000    90.00000    90.00000    90.00000  Step:          62  Bead:       0 positions{angstrom}  cell{angstrom}
       O -3.14699e+00  1.06673e+00  3.56990e-01
       H -3.81216e+00  7.75362e-01  8.81797e-01
       H -2.44498e+00  3.77718e-01  1.91020e-01
       H -3.17543e+00  1.98500e+00 -5.37840e-02
4
# CELL(abcABC): 1000.00000  1000.00000  1000.00000    90.00000    90.00000    90.00000  Step:          63  Bead:       0 positions{angstrom}  cell{angstrom}
       O -3.14727e+00  1.06623e+00  3.56064e-01
       H -3.81264e+00  7.64726e-01  8.90570e-01
       H -2.43386e+00  3.85303e-01  1.91530e-01
       H -3.18168e+00  1.99598e+00 -4.83694e-02
4
# CELL(abcABC): 1000.00000  1000.00000  1000.00000    90.00000    90.00000    90.00000  Step:          64  Bead:       0 positions{angstrom}  cell{angstrom}
       O -3.14704e+00  1.06567e+00  3.54766e-01
       H -3.81682e+00  7.51694e-01  9.04860e-01
       H -2.42679e+00  3.96311e-01  1.93265e-01
       H -3.18825e+00  2.00701e+00 -4.37886e-02
4
# CELL(abcABC): 1000.00000  1000.00000  1000.00000    90.00000    90.00000    90.00000  Step:          65  Bead:       0 positions{angstrom}  cell{angstrom}
       O -3.14642e+00  1.06496e+00  3.53265e-01
       H -3.82447e+00  7.37694e-01  9.20790e-01
       H -2.42326e+00  4.11860e-01  1.95945e-01
       H -3.19395e+00  2.01669e+00 -3.85783e-02
4
# CELL(abcABC): 1000.00000  1000.00000  1000.00000    90.00000    90.00000    90.00000  Step:          66  Bead:       0 positions{angstrom}  cell{angstrom}
       O -3.14562e+00  1.06406e+00  3.51577e-01
       H -3.83251e+00  7.25943e-01  9.38086e-01
       H -2.42306e+00  4.28485e-01  1.99858e-01
       H -3.19875e+00  2.02606e+00 -3.29957e-02
4
# CELL(abcABC): 1000.00000  1000.00000  1000.00000    90.00000    90.00000    90.00000  Step:          67  Bead:       0 positions{angstrom}  cell{angstrom}
       O -3.14476e+00  1.06317e+00  3.49914e-01
       H -3.83849e+00  7.14190e-01  9.53395e-01
       H -2.42474e+00  4.46734e-01  2.04964e-01
       H -3.20476e+00  2.03375e+00 -2.70132e-02
4
# CELL(abcABC): 1000.00000  1000.00000  1000.00000    90.00000    90.00000    90.00000  Step:          68  Bead:       0 positions{angstrom}  cell{angstrom}
       O -3.14412e+00  1.06220e+00  3.48533e-01
       H -3.84046e+00  7.03862e-01  9.65762e-01
       H -2.42696e+00  4.65337e-01  2.08833e-01
       H -3.21069e+00  2.04080e+00 -2.13294e-02
4
# CELL(abcABC): 1000.00000  1000.00000  1000.00000    90.00000    90.00000    90.00000  Step:          69  Bead:       0 positions{angstrom}  cell{angstrom}
       O -3.14378e+00  1.06140e+00  3.47189e-01
       H -3.83845e+00  6.94153e-01  9.76141e-01
       H -2.42909e+00  4.82955e-01  2.13604e-01
       H -3.21608e+00  2.04568e+00 -1.51401e-02
4
# CELL(abcABC): 1000.00000  1000.00000  1000.00000    90.00000    90.00000    90.00000  Step:          70  Bead:       0 positions{angstrom}  cell{angstrom}
       O -3.14408e+00  1.06057e+00  3.46126e-01
       H -3.83117e+00  6.87436e-01  9.81340e-01
       H -2.42846e+00  4.98960e-01  2.17741e-01
       H -3.21914e+00  2.04946e+00 -7.59929e-03
4
# CELL(abcABC): 1000.00000  1000.00000  1000.00000    90.00000    90.00000    90.00000  Step:          71  Bead:       0 positions{angstrom}  cell{angstrom}
       O -3.14492e+00  1.06001e+00  3.45430e-01
       H -3.81972e+00  6.81971e-01  9.80789e-01
       H -2.42433e+00  5.11110e-01  2.20830e-01
       H -3.22138e+00  2.05175e+00  9.07589e-04
4
# CELL(abcABC): 1000.00000  1000.00000  1000.00000    90.00000    90.00000    90.00000  Step:          72  Bead:       0 positions{angstrom}  cell{angstrom}
       O -3.14639e+00  1.05956e+00  3.44968e-01
       H -3.80363e+00  6.78846e-01  9.76523e-01
       H -2.41543e+00  5.19762e-01  2.23960e-01
       H -3.22311e+00  2.05340e+00  9.38045e-03
4
# CELL(abcABC): 1000.00000  1000.00000  1000.00000    90.00000    90.00000    90.00000  Step:          73  Bead:       0 positions{angstrom}  cell{angstrom}
       O -3.14831e+00  1.05935e+00  3.44800e-01
       H -3.78443e+00  6.77107e-01  9.68983e-01
       H -2.40232e+00  5.25521e-01  2.26488e-01
       H -3.22491e+00  2.05267e+00  1.70549e-02
4
# CELL(abcABC): 1000.00000  1000.00000  1000.00000    90.00000    90.00000    90.00000  Step:          74  Bead:       0 positions{angstrom}  cell{angstrom}
       O -3.15058e+00  1.05928e+00  3.44922e-01
       H -3.76323e+00  6.76189e-01  9.58376e-01
       H -2.38618e+00  5.29002e-01  2.27417e-01
       H -3.22618e+00  2.05129e+00  2.47994e-02
4
# CELL(abcABC): 1000.00000  1000.00000  1000.00000    90.00000    90.00000    90.00000  Step:          75  Bead:       0 positions{angstrom}  cell{angstrom}
       O -3.15277e+00  1.05941e+00  3.45044e-01
       H -3.74285e+00  6.73890e-01  9.47360e-01
       H -2.36937e+00  5.30837e-01  2.28921e-01
       H -3.22867e+00  2.04965e+00  3.23695e-02
4
# CELL(abcABC): 1000.00000  1000.00000  1000.00000    90.00000    90.00000    90.00000  Step:          76  Bead:       0 positions{angstrom}  cell{angstrom}
       O -3.15485e+00  1.05957e+00  3.44898e-01
       H -3.72415e+00  6.70179e-01  9.39677e-01
       H -2.35323e+00  5.32920e-01  2.30568e-01
       H -3.23052e+00  2.04870e+00  4.07263e-02
4
# CELL(abcABC): 1000.00000  1000.00000  1000.00000    90.00000    90.00000    90.00000  Step:          77  Bead:       0 positions{angstrom}  cell{angstrom}
       O -3.15642e+00  1.05985e+00  3.44439e-01
       H -3.70990e+00  6.64561e-01  9.36172e-01
       H -2.33969e+00  5.36530e-01  2.33051e-01
       H -3.23327e+00  2.04625e+00  4.90278e-02
4
# CELL(abcABC): 1000.00000  1000.00000  1000.00000    90.00000    90.00000    90.00000  Step:          78  Bead:       0 positions{angstrom}  cell{angstrom}
       O -3.15738e+00  1.06028e+00  3.43794e-01
       H -3.70235e+00  6.54740e-01  9.37079e-01
       H -2.32850e+00  5.42695e-01  2.35585e-01
       H -3.23686e+00  2.04315e+00  5.58351e-02
4
# CELL(abcABC): 1000.00000  1000.00000  1000.00000    90.00000    90.00000    90.00000  Step:          79  Bead:       0 positions{angstrom}  cell{angstrom}
       O -3.15778e+00  1.06089e+00  3.42774e-01
       H -3.70097e+00  6.41978e-01  9.44544e-01
       H -2.31978e+00  5.50309e-01  2.38227e-01
       H -3.24056e+00  2.03850e+00  6.19121e-02
4
# CELL(abcABC): 1000.00000  1000.00000  1000.00000    90.00000    90.00000    90.00000  Step:          80  Bead:       0 positions{angstrom}  cell{angstrom}
       O -3.15772e+00  1.06153e+00  3.41399e-01
       H -3.70354e+00  6.26997e-01  9.55980e-01
       H -2.31463e+00  5.60120e-01  2.42194e-01
       H -3.24413e+00  2.03356e+00  6.83448e-02
4
# CELL(abcABC): 1000.00000  1000.00000  1000.00000    90.00000    90.00000    90.00000  Step:          81  Bead:       0 positions{angstrom}  cell{angstrom}
       O -3.15728e+00  1.06192e+00  3.39975e-01
       H -3.70661e+00  6.11843e-01  9.68780e-01
       H -2.31384e+00  5.74195e-01  2.46538e-01
       H -3.24884e+00  2.02842e+00  7.38025e-02
4
# CELL(abcABC): 1000.00000  1000.00000  1000.00000    90.00000    90.00000    90.00000  Step:          82  Bead:       0 positions{angstrom}  cell{angstrom}
       O -3.15654e+00  1.06225e+00  3.38482e-01
       H -3.70993e+00  5.96498e-01  9.82406e-01
       H -2.31572e+00  5.89069e-01  2.50851e-01
       H -3.25533e+00  2.02369e+00  7.95498e-02
4
# CELL(abcABC): 1000.00000  1000.00000  1000.00000    90.00000    90.00000    90.00000  Step:          83  Bead:       0 positions{angstrom}  cell{angstrom}
       O -3.15571e+00  1.06224e+00  3.37149e-01
       H -3.71262e+00  5.83301e-01  9.94737e-01
       H -2.31955e+00  6.05760e-01  2.55009e-01
       H -3.26208e+00  2.02034e+00  8.42236e-02
4
# CELL(abcABC): 1000.00000  1000.00000  1000.00000    90.00000    90.00000    90.00000  Step:          84  Bead:       0 positions{angstrom}  cell{angstrom}
       O -3.15487e+00  1.06193e+00  3.36112e-01
       H -3.71253e+00  5.72118e-01  1.00293e+00
       H -2.32491e+00  6.23294e-01  2.58678e-01
       H -3.27006e+00  2.01896e+00  8.88327e-02
4
# CELL(abcABC): 1000.00000  1000.00000  1000.00000    90.00000    90.00000    90.00000  Step:          85  Bead:       0 positions{angstrom}  cell{angstrom}