6
# CELL(abcABC): 1000.00000  1000.00000  1000.00000    90.00000    90.00000    90.00000  Step:         448  Bead:       0 positions{angstrom}  cell{angstrom}
       C -7.70786e-01  2.97726e+00 -6.22956e-01
       H -1.27177e+00  3.51529e+00 -1.48596e+00
       H  1.89977e-01  3.49173e+00 -5.07241e-01
       H -5.30621e-01  1.97441e+00 -9.30429e-01
       O -1.47444e+00  2.99044e+00  5.58507e-01
       H -2.30846e+00  2.91387e+00  1.16774e+00
