4
# CELL(abcABC): 1000.00000  1000.00000  1000.00000    90.00000    90.00000    90.00000  Step:           0  Bead:       0 positions{angstrom}  cell{angstrom}
       O -3.14618e+00  1.06540e+00  3.47021e-01
       H -3.64684e+00  4.41862e-01 -1.38060e-01
       H -2.24789e+00  6.59554e-01  4.21651e-01
       H -3.55066e+00  2.05749e+00  8.93676e-01
4
# CELL(abcABC): 1000.00000  1000.00000  1000.00000    90.00000    90.00000    90.00000  Step:           1  Bead:       0 positions{angstrom}  cell{angstrom}
       O -3.14434e+00  1.06569e+00  3.46591e-01
       H -3.65715e+00  4.34117e-01 -1.34669e-01
       H -2.24988e+00  6.59944e-01  4.22203e-01
       H -3.56756e+00  2.06030e+00  8.96551e-01
4
# CELL(abcABC): 1000.00000  1000.00000  1000.00000    90.00000    90.00000    90.00000  Step:           2  Bead:       0 positions{angstrom}  cell{angstrom}
       O -3.14236e+00  1.06591e+00  3.46341e-01
       H -3.66792e+00  4.26432e-01 -1.31693e-01
       H -2.25420e+00  6.62257e-01  4.21559e-01
       H -3.58391e+00  2.06216e+00  8.98193e-01
4
# CELL(abcABC): 1000.00000  1000.00000  1000.00000    90.00000    90.00000    90.00000  Step:           3  Bead:       0 positions{angstrom}  cell{angstrom}
       O -3.14023e+00  1.06609e+00  3.46157e-01
       H -3.67747e+00  4.18356e-01 -1.27085e-01
       H -2.26199e+00  6.67322e-01  4.20440e-01
       H -3.60043e+00  2.06235e+00  8.97627e-01
4
# CELL(abcABC): 1000.00000  1000.00000  1000.00000    90.00000    90.00000    90.00000  Step:           4  Bead:       0 positions{angstrom}  cell{angstrom}
       O -3.13814e+00  1.06623e+00  3.46156e-01
       H -3.68572e+00  4.10622e-01 -1.23081e-01
       H -2.27111e+00  6.74215e-01  4.17926e-01
       H -3.61618e+00  2.06088e+00  8.96151e-01
4
# CELL(abcABC): 1000.00000  1000.00000  1000.00000    90.00000    90.00000    90.00000  Step:           5  Bead:       0 positions{angstrom}  cell{angstrom}
       O -3.13614e+00  1.06619e+00  3.46261e-01
       H -3.69244e+00  4.05102e-01 -1.18330e-01
       H -2.28123e+00  6.82791e-01  4.15671e-01
       H -3.63111e+00  2.05852e+00  8.91989e-01
4
# CELL(abcABC): 1000.00000  1000.00000  1000.00000    90.00000    90.00000    90.00000  Step:           6  Bead:       0 positions{angstrom}  cell{angstrom}
       O -3.13437e+00  1.06618e+00  3.46438e-01
       H -3.69621e+00  4.02447e-01 -1.13181e-01
       H -2.29038e+00  6.89450e-01  4.11893e-01
       H -3.64619e+00  2.05470e+00  8.87808e-01
4
# CELL(abcABC): 1000.00000  1000.00000  1000.00000    90.00000    90.00000    90.00000  Step:           7  Bead:       0 positions{angstrom}  cell{angstrom}
       O -3.13315e+00  1.06606e+00  3.46438e-01
       H -3.69537e+00  4.02542e-01 -1.05291e-01
       H -2.29621e+00  6.94558e-01  4.08592e-01
       H -3.66066e+00  2.05129e+00  8.83224e-01
4
# CELL(abcABC): 1000.00000  1000.00000  1000.00000    90.00000    90.00000    90.00000  Step:           8  Bead:       0 positions{angstrom}  cell{angstrom}
       O -3.13259e+00  1.06601e+00  3.46504e-01
       H -3.69050e+00  4.05092e-01 -9.68193e-02
       H -2.29615e+00  6.96896e-01  4.04508e-01
       H -3.67453e+00  2.04722e+00  8.77789e-01
4
# CELL(abcABC): 1000.00000  1000.00000  1000.00000    90.00000    90.00000    90.00000  Step:           9  Bead:       0 positions{angstrom}  cell{angstrom}
       O -3.13263e+00  1.06614e+00  3.46470e-01
       H -3.68303e+00  4.08581e-01 -8.64444e-02
       H -2.28985e+00  6.97363e-01  4.00962e-01
       H -3.68760e+00  2.04123e+00  8.71495e-01
4
# CELL(abcABC): 1000.00000  1000.00000  1000.00000    90.00000    90.00000    90.00000  Step:          10  Bead:       0 positions{angstrom}  cell{angstrom}
       O -3.13314e+00  1.06632e+00  3.46623e-01
       H -3.67362e+00  4.12851e-01 -7.67340e-02
       H -2.27903e+00  6.96864e-01  3.96619e-01
       H -3.69979e+00  2.03458e+00  8.63693e-01
4
# CELL(abcABC): 1000.00000  1000.00000  1000.00000    90.00000    90.00000    90.00000  Step:          11  Bead:       0 positions{angstrom}  cell{angstrom}
       O -3.13393e+00  1.06666e+00  3.47034e-01
       H -3.66310e+00  4.17480e-01 -6.90431e-02
       H -2.26671e+00  6.95138e-01  3.91737e-01
       H -3.70997e+00  2.02637e+00  8.54368e-01
4
# CELL(abcABC): 1000.00000  1000.00000  1000.00000    90.00000    90.00000    90.00000  Step:          12  Bead:       0 positions{angstrom}  cell{angstrom}
       O -3.13498e+00  1.06722e+00  3.47688e-01
       H -3.65149e+00  4.20362e-01 -6.32399e-02
       H -2.25354e+00  6.92050e-01  3.85686e-01
       H -3.71812e+00  2.01767e+00  8.44240e-01
4
# CELL(abcABC): 1000.00000  1000.00000  1000.00000    90.00000    90.00000    90.00000  Step:          13  Bead:       0 positions{angstrom}  cell{angstrom}
       O -3.13604e+00  1.06797e+00  3.48533e-01
       H -3.64110e+00  4.21142e-01 -5.94988e-02
       H -2.23996e+00  6.89537e-01  3.79483e-01
       H -3.72536e+00  2.00737e+00  8.33284e-01
4
# CELL(abcABC): 1000.00000  1000.00000  1000.00000    90.00000    90.00000    90.00000  Step:          14  Bead:       0 positions{angstrom}  cell{angstrom}
       O -3.13694e+00  1.06889e+00  3.49571e-01
       H -3.63145e+00  4.18161e-01 -5.81209e-02
       H -2.22846e+00  6.89162e-01  3.73156e-01
       H -3.73218e+00  1.99624e+00  8.21757e-01
4
# CELL(abcABC): 1000.00000  1000.00000  1000.00000    90.00000    90.00000    90.00000  Step:          15  Bead:       0 positions{angstrom}  cell{angstrom}
       O -3.13745e+00  1.06983e+00  3.50611e-01
       H -3.62631e+00  4.10921e-01 -5.74815e-02
       H -2.22141e+00  6.91515e-01  3.67050e-01
       H -3.73618e+00  1.98619e+00  8.10711e-01
4
# CELL(abcABC): 1000.00000  1000.00000  1000.00000    90.00000    90.00000    90.00000  Step:          16  Bead:       0 positions{angstrom}  cell{angstrom}
       O -3.13766e+00  1.07076e+00  3.51823e-01
       H -3.62252e+00  4.00055e-01 -5.96861e-02
       H -2.21901e+00  6.97562e-01  3.61179e-01
       H -3.73911e+00  1.97615e+00  7.99553e-01
4
# CELL(abcABC): 1000.00000  1000.00000  1000.00000    90.00000    90.00000    90.00000  Step:          17  Bead:       0 positions{angstrom}  cell{angstrom}
       O -3.13745e+00  1.07167e+00  3.53134e-01
       H -3.61978e+00  3.87479e-01 -6.34441e-02
       H -2.22216e+00  7.07067e-01  3.54667e-01
       H -3.74203e+00  1.96484e+00  7.89008e-01
4
# CELL(abcABC): 1000.00000  1000.00000  1000.00000    90.00000    90.00000    90.00000  Step:          18  Bead:       0 positions{angstrom}  cell{angstrom}
       O -3.13696e+00  1.07237e+00  3.54473e-01
       H -3.61902e+00  3.74927e-01 -6.79211e-02
       H -2.22808e+00  7.19229e-01  3.48531e-01
       H -3.74462e+00  1.95408e+00  7.78368e-01
4
# CELL(abcABC): 1000.00000  1000.00000  1000.00000    90.00000    90.00000    90.00000  Step:          19  Bead:       0 positions{angstrom}  cell{angstrom}
       O -3.13644e+00  1.07293e+00  3.55754e-01
       H -3.61791e+00  3.62858e-01 -7.19477e-02
       H -2.23752e+00  7.33099e-01  3.42284e-01
       H -3.74454e+00  1.94337e+00  7.68301e-01
4
# CELL(abcABC): 1000.00000  1000.00000  1000.00000    90.00000    90.00000    90.00000  Step:          20  Bead:       0 positions{angstrom}  cell{angstrom}
       O -3.13595e+00  1.07331e+00  3.56998e-01
       H -3.61600e+00  3.53065e-01 -7.66375e-02
       H -2.24895e+00  7.48769e-01  3.36902e-01
       H -3.74284e+00  1.93159e+00  7.58641e-01
4
# CELL(abcABC): 1000.00000  1000.00000  1000.00000    90.00000    90.00000    90.00000  Step:          21  Bead:       0 positions{angstrom}  cell{angstrom}
       O -3.13574e+00  1.07343e+00  3.58179e-01
       H -3.61322e+00  3.45535e-01 -8.12209e-02
       H -2.25764e+00  7.65962e-01  3.33130e-01
       H -3.74026e+00  1.92002e+00  7.48249e-01
4
# CELL(abcABC): 1000.00000  1000.00000  1000.00000    90.00000    90.00000    90.00000  Step:          22  Bead:       0 positions{angstrom}  cell{angstrom}
       O -3.13596e+00  1.07322e+00  3.59298e-01
       H -3.60989e+00  3.40533e-01 -8.31769e-02
       H -2.26090e+00  7.83690e-01  3.28387e-01
       H -3.73677e+00  1.91063e+00  7.37172e-01
4
# CELL(abcABC): 1000.00000  1000.00000  1000.00000    90.00000    90.00000    90.00000  Step:          23  Bead:       0 positions{angstrom}  cell{angstrom}
       O -3.13669e+00  1.07274e+00  3.60440e-01
       H -3.60454e+00  3.39740e-01 -8.37998e-02
       H -2.25857e+00  8.01762e-01  3.24594e-01
       H -3.73295e+00  1.90086e+00  7.23464e-01
4
# CELL(abcABC): 1000.00000  1000.00000  1000.00000    90.00000    90.00000    90.00000  Step:          24  Bead:       0 positions{angstrom}  cell{angstrom}
       O -3.13792e+00  1.07193e+00  3.61427e-01
       H -3.59685e+00  3.41447e-01 -8.26612e-02
       H -2.25071e+00  8.20618e-01  3.21551e-01
       H -3.72898e+00  1.89321e+00  7.09714e-01
4
# CELL(abcABC): 1000.00000  1000.00000  1000.00000    90.00000    90.00000    90.00000  Step:          25  Bead:       0 positions{angstrom}  cell{angstrom}
       O -3.13951e+00  1.07098e+00  3.62170e-01
       H -3.58779e+00  3.45053e-01 -7.91620e-02
       H -2.23870e+00  8.38650e-01  3.19169e-01
       H -3.72479e+00  1.88661e+00  6.96798e-01
4
# CELL(abcABC): 1000.00000  1000.00000  1000.00000    90.00000    90.00000    90.00000  Step:          26  Bead:       0 positions{angstrom}  cell{angstrom}
       O -3.14135e+00  1.06994e+00  3.62757e-01
       H -3.57786e+00  3.49902e-01 -7.53261e-02
       H -2.22336e+00  8.56455e-01  3.17078e-01
       H -3.72090e+00  1.88053e+00  6.85737e-01
4
# CELL(abcABC): 1000.00000  1000.00000  1000.00000    90.00000    90.00000    90.00000  Step:          27  Bead:       0 positions{angstrom}  cell{angstrom}
       O -3.14336e+00  1.06875e+00  3.63271e-01
       H -3.56791e+00  3.56345e-01 -7.18061e-02
       H -2.20699e+00  8.73758e-01  3.15173e-01
       H -3.71530e+00  1.87555e+00  6.75959e-01
4
# CELL(abcABC): 1000.00000  1000.00000  1000.00000    90.00000    90.00000    90.00000  Step:          28  Bead:       0 positions{angstrom}  cell{angstrom}
       O -3.14519e+00  1.06753e+00  3.63669e-01
       H -3.55962e+00  3.60396e-01 -6.89489e-02
       H -2.19116e+00  8.91731e-01  3.14077e-01
       H -3.71032e+00  1.87300e+00  6.67884e-01
4
# CELL(abcABC): 1000.00000  1000.00000  1000.00000    90.00000    90.00000    90.00000  Step:          29  Bead:       0 positions{angstrom}  cell{angstrom}
       O -3.14676e+00  1.06628e+00  3.64068e-01
       H -3.55186e+00  3.62613e-01 -6.87624e-02
       H -2.17932e+00  9.10283e-01  3.13546e-01
       H -3.70499e+00  1.87201e+00  6.61897e-01
4
# CELL(abcABC): 1000.00000  1000.00000  1000.00000    90.00000    90.00000    90.00000  Step:          30  Bead:       0 positions{angstrom}  cell{angstrom}
       O -3.14793e+00  1.06500e+00  3.64447e-01
       H -3.54531e+00  3.62732e-01 -6.96209e-02
       H -2.17212e+00  9.29354e-01  3.13989e-01
       H -3.70016e+00  1.87314e+00  6.56287e-01
4
# CELL(abcABC): 1000.00000  1000.00000  1000.00000    90.00000    90.00000    90.00000  Step:          31  Bead:       0 positions{angstrom}  cell{angstrom}
       O -3.14877e+00  1.06372e+00  3.64924e-01
       H -3.53896e+00  3.59319e-01 -7.24148e-02
       H -2.16945e+00  9.49936e-01  3.14312e-01
       H -3.69580e+00  1.87627e+00  6.51190e-01
4
# CELL(abcABC): 1000.00000  1000.00000  1000.00000    90.00000    90.00000    90.00000  Step:          32  Bead:       0 positions{angstrom}  cell{angstrom}
       O -3.14912e+00  1.06268e+00  3.65263e-01
       H -3.53516e+00  3.50266e-01 -7.67049e-02
       H -2.17158e+00  9.71930e-01  3.16298e-01
       H -3.69190e+00  1.87996e+00  6.48111e-01
4
# CELL(abcABC): 1000.00000  1000.00000  1000.00000    90.00000    90.00000    90.00000  Step:          33  Bead:       0 positions{angstrom}  cell{angstrom}
       O -3.14906e+00  1.06188e+00  3.65508e-01
       H -3.53293e+00  3.37510e-01 -8.13188e-02
       H -2.17829e+00  9.92757e-01  3.19135e-01
       H -3.68852e+00  1.88453e+00  6.45999e-01
4
# CELL(abcABC): 1000.00000  1000.00000  1000.00000    90.00000    90.00000    90.00000  Step:          34  Bead:       0 positions{angstrom}  cell{angstrom}
       O -3.14856e+00  1.06120e+00  3.65826e-01
       H -3.53046e+00  3.22790e-01 -8.68295e-02
       H -2.19079e+00  1.01255e+00  3.22546e-01
       H -3.68634e+00  1.89024e+00  6.43057e-01
4
# CELL(abcABC): 1000.00000  1000.00000  1000.00000    90.00000    90.00000    90.00000  Step:          35  Bead:       0 positions{angstrom}  cell{angstrom}
       O -3.14798e+00  1.06051e+00  3.66081e-01
       H -3.52556e+00  3.07640e-01 -9.29302e-02
       H -2.20669e+00  1.03239e+00  3.26722e-01
       H -3.68457e+00  1.89643e+00  6.40921e-01
4
# CELL(abcABC): 1000.00000  1000.00000  1000.00000    90.00000    90.00000    90.00000  Step:          36  Bead:       0 positions{angstrom}  cell{angstrom}
       O -3.14752e+00  1.05971e+00  3.66260e-01
       H -3.51892e+00  2.93483e-01 -9.86155e-02
       H -2.22218e+00  1.05240e+00  3.29978e-01
       H -3.68307e+00  1.90327e+00  6.40514e-01
4
# CELL(abcABC): 1000.00000  1000.00000  1000.00000    90.00000    90.00000    90.00000  Step:          37  Bead:       0 positions{angstrom}  cell{angstrom}
       O -3.14741e+00  1.05890e+00  3.66206e-01
       H -3.50956e+00  2.82205e-01 -1.00981e-01
       H -2.23424e+00  1.07052e+00  3.32475e-01
       H -3.68208e+00  1.90943e+00  6.41240e-01
4
# CELL(abcABC): 1000.00000  1000.00000  1000.00000    90.00000    90.00000    90.00000  Step:          38  Bead:       0 positions{angstrom}  cell{angstrom}
       O -3.14760e+00  1.05798e+00  3.66184e-01
       H -3.49883e+00  2.73334e-01 -1.02659e-01
       H -2.24109e+00  1.08615e+00  3.34273e-01
       H -3.68297e+00  1.91720e+00  6.41477e-01
4
# CELL(abcABC): 1000.00000  1000.00000  1000.00000    90.00000    90.00000    90.00000  Step:          39  Bead:       0 positions{angstrom}  cell{angstrom}
       O -3.14849e+00  1.05709e+00  3.65919e-01
       H -3.48493e+00  2.66778e-01 -1.01794e-01
       H -2.24113e+00  1.09921e+00  3.36480e-01
       H -3.68268e+00  1.92480e+00  6.42599e-01
4
# CELL(abcABC): 1000.00000  1000.00000  1000.00000    90.00000    90.00000    90.00000  Step:          40  Bead:       0 positions{angstrom}  cell{angstrom}
       O -3.14994e+00  1.05608e+00  3.65334e-01
       H -3.46872e+00  2.63152e-01 -9.80165e-02
       H -2.23468e+00  1.11097e+00  3.39871e-01
       H -3.68231e+00  1.93272e+00  6.44728e-01
4
# CELL(abcABC): 1000.00000  1000.00000  1000.00000    90.00000    90.00000    90.00000  Step:          41  Bead:       0 positions{angstrom}  cell{angstrom}
       O -3.15177e+00  1.05502e+00  3.64572e-01
       H -3.45095e+00  2.62458e-01 -9.30712e-02
       H -2.22296e+00  1.12159e+00  3.43246e-01
       H -3.68269e+00  1.93970e+00  6.48493e-01
4
# CELL(abcABC): 1000.00000  1000.00000  1000.00000    90.00000    90.00000    90.00000  Step:          42  Bead:       0 positions{angstrom}  cell{angstrom}
       O -3.15391e+00  1.05414e+00  3.63772e-01
       H -3.43043e+00  2.61117e-01 -8.74575e-02
       H -2.20872e+00  1.13056e+00  3.46781e-01
       H -3.68350e+00  1.94596e+00  6.52052e-01
4
# CELL(abcABC): 1000.00000  1000.00000  1000.00000    90.00000    90.00000    90.00000  Step:          43  Bead:       0 positions{angstrom}  cell{angstrom}
       O -3.15602e+00  1.05335e+00  3.62933e-01
       H -3.40948e+00  2.60697e-01 -8.18470e-02
       H -2.19470e+00  1.13902e+00  3.50462e-01
       H -3.68503e+00  1.95042e+00  6.56076e-01
4
# CELL(abcABC): 1000.00000  1000.00000  1000.00000    90.00000    90.00000    90.00000  Step:          44  Bead:       0 positions{angstrom}  cell{angstrom}
       O -3.15789e+00  1.05285e+00  3.62089e-01
       H -3.38824e+00  2.58488e-01 -7.72108e-02
       H -2.18328e+00  1.14508e+00  3.53660e-01
       H -3.68803e+00  1.95459e+00  6.61639e-01
4
# CELL(abcABC): 1000.00000  1000.00000  1000.00000    90.00000    90.00000    90.00000  Step:          45  Bead:       0 positions{angstrom}  cell{angstrom}
       O -3.15930e+00  1.05269e+00  3.61337e-01
       H -3.36795e+00  2.54354e-01 -7.41263e-02
       H -2.17554e+00  1.14846e+00  3.56090e-01
       H -3.69362e+00  1.95788e+00  6.68063e-01
4
# CELL(abcABC): 1000.00000  1000.00000  1000.00000    90.00000    90.00000    90.00000  Step:          46  Bead:       0 positions{angstrom}  cell{angstrom}
       O -3.16030e+00  1.05290e+00  3.60671e-01
       H -3.34847e+00  2.48294e-01 -7.26438e-02
       H -2.17334e+00  1.14897e+00  3.58115e-01
       H -3.69939e+00  1.95999e+00  6.75118e-01
4
# CELL(abcABC): 1000.00000  1000.00000  1000.00000    90.00000    90.00000    90.00000  Step:          47  Bead:       0 positions{angstrom}  cell{angstrom}
       O -3.16079e+00  1.05335e+00  3.60188e-01
       H -3.32986e+00  2.39436e-01 -7.20896e-02
       H -2.17673e+00  1.14783e+00  3.59366e-01
       H -3.70684e+00  1.96289e+00  6.80993e-01
4
# CELL(abcABC): 1000.00000  1000.00000  1000.00000    90.00000    90.00000    90.00000  Step:          48  Bead:       0 positions{angstrom}  cell{angstrom}
       O -3.16079e+00  1.05417e+00  3.59734e-01
       H -3.31177e+00  2.27540e-01 -7.21390e-02
       H -2.18552e+00  1.14569e+00  3.60002e-01
       H -3.71620e+00  1.96389e+00  6.87608e-01
4
# CELL(abcABC): 1000.00000  1000.00000  1000.00000    90.00000    90.00000    90.00000  Step:          49  Bead:       0 positions{angstrom}  cell{angstrom}
       O -3.16042e+00  1.05519e+00  3.59171e-01
       H -3.29463e+00  2.14176e-01 -7.19808e-02
       H -2.19741e+00  1.14208e+00  3.60926e-01
       H -3.72729e+00  1.96474e+00  6.95459e-01
4
# CELL(abcABC): 1000.00000  1000.00000  1000.00000    90.00000    90.00000    90.00000  Step:          50  Bead:       0 positions{angstrom}  cell{angstrom}
       O -3.15957e+00  1.05636e+00  3.58671e-01
       H -3.27889e+00  2.01135e-01 -7.18799e-02
       H -2.21377e+00  1.13700e+00  3.62154e-01
       H -3.74014e+00  1.96428e+00  7.02063e-01
4
# CELL(abcABC): 1000.00000  1000.00000  1000.00000    90.00000    90.00000    90.00000  Step:          51  Bead:       0 positions{angstrom}  cell{angstrom}
       O -3.15857e+00  1.05750e+00  3.58111e-01
       H -3.26473e+00  1.89092e-01 -7.14196e-02
       H -2.23081e+00  1.13204e+00  3.63520e-01
       H -3.75319e+00  1.96324e+00  7.09128e-01
4
# CELL(abcABC): 1000.00000  1000.00000  1000.00000    90.00000    90.00000    90.00000  Step:          52  Bead:       0 positions{angstrom}  cell{angstrom}
       O -3.15756e+00  1.05860e+00  3.57557e-01
       H -3.25234e+00  1.79303e-01 -6.96778e-02
       H -2.24567e+00  1.12689e+00  3.64098e-01
       H -3.76679e+00  1.96065e+00  7.15607e-01
4
# CELL(abcABC): 1000.00000  1000.00000  1000.00000    90.00000    90.00000    90.00000  Step:          53  Bead:       0 positions{angstrom}  cell{angstrom}
       O -3.15674e+00  1.05947e+00  3.56842e-01
       H -3.24093e+00  1.73296e-01 -6.72527e-02
       H -2.25562e+00  1.12410e+00  3.65741e-01
       H -3.78114e+00  1.95566e+00  7.22890e-01
4
# CELL(abcABC): 1000.00000  1000.00000  1000.00000    90.00000    90.00000    90.00000  Step:          54  Bead:       0 positions{angstrom}  cell{angstrom}
       O -3.15622e+00  1.06017e+00  3.55720e-01
       H -3.23135e+00  1.70046e-01 -6.20045e-02
       H -2.25874e+00  1.12338e+00  3.68699e-01
       H -3.79600e+00  1.94849e+00  7.32484e-01
4
# CELL(abcABC): 1000.00000  1000.00000  1000.00000    90.00000    90.00000    90.00000  Step:          55  Bead:       0 positions{angstrom}  cell{angstrom}
       O -3.15608e+00  1.06063e+00  3.54417e-01
       H -3.22423e+00  1.70602e-01 -5.42767e-02
       H -2.25378e+00  1.12437e+00  3.72951e-01
       H -3.81020e+00  1.93973e+00  7.41201e-01
4
# CELL(abcABC): 1000.00000  1000.00000  1000.00000    90.00000    90.00000    90.00000  Step:          56  Bead:       0 positions{angstrom}  cell{angstrom}
       O -3.15631e+00  1.06081e+00  3.52981e-01
       H -3.21690e+00  1.74656e-01 -4.45008e-02
       H -2.24206e+00  1.12673e+00  3.76740e-01
       H -3.82567e+00  1.93041e+00  7.50430e-01
4
# CELL(abcABC): 1000.00000  1000.00000  1000.00000    90.00000    90.00000    90.00000  Step:          57  Bead:       0 positions{angstrom}  cell{angstrom}
       O -3.15668e+00  1.06078e+00  3.51405e-01
       H -3.21002e+00  1.81615e-01 -3.32309e-02
       H -2.22671e+00  1.13015e+00  3.82086e-01
       H -3.84205e+00  1.92055e+00  7.58817e-01
4
# CELL(abcABC): 1000.00000  1000.00000  1000.00000    90.00000    90.00000    90.00000  Step:          58  Bead:       0 positions{angstrom}  cell{angstrom}
       O -3.15711e+00  1.06071e+00  3.49804e-01
       H -3.20410e+00  1.88770e-01 -2.18161e-02
       H -2.20899e+00  1.13485e+00  3.88543e-01
       H -3.85888e+00  1.90966e+00  7.66371e-01
4
# CELL(abcABC): 1000.00000  1000.00000  1000.00000    90.00000    90.00000    90.00000  Step:          59  Bead:       0 positions{angstrom}  cell{angstrom}
       O -3.15741e+00  1.06065e+00  3.48126e-01
       H -3.19930e+00  1.95472e-01 -1.07085e-02
       H -2.19170e+00  1.14105e+00  3.96933e-01
       H -3.87609e+00  1.89780e+00  7.73504e-01
4
# CELL(abcABC): 1000.00000  1000.00000  1000.00000    90.00000    90.00000    90.00000  Step:          60  Bead:       0 positions{angstrom}  cell{angstrom}
       O -3.15745e+00  1.06079e+00  3.46606e-01
       H -3.19750e+00  1.99703e-01 -6.25993e-04
       H -2.17667e+00  1.14732e+00  4.03894e-01
       H -3.89235e+00  1.88501e+00  7.80588e-01
4
# CELL(abcABC): 1000.00000  1000.00000  1000.00000    90.00000    90.00000    90.00000  Step:          61  Bead:       0 positions{angstrom}  cell{angstrom}
       O -3.15718e+00  1.06124e+00  3.45285e-01
       H -3.19668e+00  2.00142e-01  7.56957e-03
       H -2.16523e+00  1.15370e+00  4.09460e-01
       H -3.90895e+00  1.87117e+00  7.87797e-01
4
# CELL(abcABC): 1000.00000  1000.00000  1000.00000    90.00000    90.00000    90.00000  Step:          62  Bead:       0 positions{angstrom}  cell{angstrom}
       O -3.15637e+00  1.06207e+00  3.44304e-01
       H -3.19834e+00  1.96010e-01  1.34498e-02
       H -2.16103e+00  1.15961e+00  4.14168e-01
       H -3.92434e+00  1.85611e+00  7.92773e-01
4
# CELL(abcABC): 1000.00000  1000.00000  1000.00000    90.00000    90.00000    90.00000  Step:          63  Bead:       0 positions{angstrom}  cell{angstrom}
       O -3.15503e+00  1.06309e+00  3.43387e-01
       H -3.20119e+00  1.89575e-01  1.80625e-02
       H -2.16363e+00  1.16456e+00  4.18162e-01
       H -3.94013e+00  1.84137e+00  7.98730e-01
4
# CELL(abcABC): 1000.00000  1000.00000  1000.00000    90.00000    90.00000    90.00000  Step:          64  Bead:       0 positions{angstrom}  cell{angstrom}
       O -3.15329e+00  1.06434e+00  3.42637e-01
       H -3.20406e+00  1.81113e-01  2.22145e-02
       H -2.17204e+00  1.16898e+00  4.21526e-01
       H -3.95637e+00  1.82562e+00  8.03118e-01
4
# CELL(abcABC): 1000.00000  1000.00000  1000.00000    90.00000    90.00000    90.00000  Step:          65  Bead:       0 positions{angstrom}  cell{angstrom}
       O -3.15122e+00  1.06567e+00  3.42096e-01
       H -3.20872e+00  1.72267e-01  2.42242e-02
       H -2.18491e+00  1.17436e+00  4.24041e-01
       H -3.97173e+00  1.80801e+00  8.07174e-01
4
# CELL(abcABC): 1000.00000  1000.00000  1000.00000    90.00000    90.00000    90.00000  Step:          66  Bead:       0 positions{angstrom}  cell{angstrom}
       O -3.14896e+00  1.06693e+00  3.41621e-01
       H -3.21420e+00  1.66480e-01  2.62873e-02
       H -2.20108e+00  1.17813e+00  4.26226e-01
       H -3.98602e+00  1.79003e+00  8.10476e-01
4
# CELL(abcABC): 1000.00000  1000.00000  1000.00000    90.00000    90.00000    90.00000  Step:          67  Bead:       0 positions{angstrom}  cell{angstrom}
       O -3.14659e+00  1.06821e+00  3.41273e-01
       H -3.21987e+00  1.61411e-01  2.71689e-02
       H -2.21786e+00  1.18213e+00  4.28419e-01
       H -4.00121e+00  1.77078e+00  8.12921e-01
4
# CELL(abcABC): 1000.00000  1000.00000  1000.00000    90.00000    90.00000    90.00000  Step:          68  Bead:       0 positions{angstrom}  cell{angstrom}
       O -3.14440e+00  1.06931e+00  3.41177e-01
       H -3.22506e+00  1.58566e-01  2.76118e-02
       H -2.23273e+00  1.18666e+00  4.28698e-01
       H -4.01588e+00  1.75166e+00  8.13728e-01
4
# CELL(abcABC): 1000.00000  1000.00000  1000.00000    90.00000    90.00000    90.00000  Step:          69  Bead:       0 positions{angstrom}  cell{angstrom}
       O -3.14249e+00  1.07032e+00  3.40985e-01
       H -3.23047e+00  1.57210e-01  2.96876e-02
       H -2.24405e+00  1.19212e+00  4.29745e-01
       H -4.02942e+00  1.73150e+00  8.13640e-01
4
# CELL(abcABC): 1000.00000  1000.00000  1000.00000    90.00000    90.00000    90.00000  Step:          70  Bead:       0 positions{angstrom}  cell{angstrom}
       O -3.14125e+00  1.07095e+00  3.40869e-01
       H -3.23506e+00  1.59683e-01  3.09069e-02
       H -2.24870e+00  1.19950e+00  4.30532e-01
       H -4.03992e+00  1.71161e+00  8.13479e-01
4
# CELL(abcABC): 1000.00000  1000.00000  1000.00000    90.00000    90.00000    90.00000  Step:          71  Bead:       0 positions{angstrom}  cell{angstrom}
       O -3.14054e+00  1.07141e+00  3.40894e-01
       H -3.23967e+00  1.64043e-01  3.07304e-02
       H -2.24645e+00  1.20768e+00  4.30930e-01
       H -4.04876e+00  1.69178e+00  8.12861e-01
4
# CELL(abcABC): 1000.00000  1000.00000  1000.00000    90.00000    90.00000    90.00000  Step:          72  Bead:       0 positions{angstrom}  cell{angstrom}
       O -3.14044e+00  1.07154e+00  3.40955e-01
       H -3.24309e+00  1.71209e-01  3.07063e-02
       H -2.23720e+00  1.21724e+00  4.32035e-01
       H -4.05616e+00  1.67295e+00  8.10817e-01
4
# CELL(abcABC): 1000.00000  1000.00000  1000.00000    90.00000    90.00000    90.00000  Step:          73  Bead:       0 positions{angstrom}  cell{angstrom}
       O -3.14076e+00  1.07155e+00  3.41198e-01
       H -3.24569e+00  1.79914e-01  3.01610e-02
       H -2.22310e+00  1.22806e+00  4.32914e-01
       H -4.06263e+00  1.65337e+00  8.06626e-01
4
# CELL(abcABC): 1000.00000  1000.00000  1000.00000    90.00000    90.00000    90.00000  Step:          74  Bead:       0 positions{angstrom}  cell{angstrom}
       O -3.14140e+00  1.07142e+00  3.41748e-01
       H -3.24696e+00  1.89320e-01  2.76273e-02
       H -2.20684e+00  1.23929e+00  4.32098e-01
       H -4.06748e+00  1.63473e+00  8.01234e-01
4
# CELL(abcABC): 1000.00000  1000.00000  1000.00000    90.00000    90.00000    90.00000  Step:          75  Bead:       0 positions{angstrom}  cell{angstrom}
       O -3.14199e+00  1.07136e+00  3.42485e-01
       H -3.24771e+00  1.97227e-01  2.35139e-02
       H -2.19179e+00  1.24975e+00  4.31250e-01
       H -4.07242e+00  1.61730e+00  7.94501e-01
4
# CELL(abcABC): 1000.00000  1000.00000  1000.00000    90.00000    90.00000    90.00000  Step:          76  Bead:       0 positions{angstrom}  cell{angstrom}
       O -3.14262e+00  1.07129e+00  3.43305e-01
       H -3.24662e+00  2.03998e-01  1.92138e-02
       H -2.17976e+00  1.25957e+00  4.29532e-01
       H -4.07554e+00  1.60190e+00  7.87510e-01
4
# CELL(abcABC): 1000.00000  1000.00000  1000.00000    90.00000    90.00000    90.00000  Step:          77  Bead:       0 positions{angstrom}  cell{angstrom}
       O -3.14301e+00  1.07135e+00  3.44305e-01
       H -3.24460e+00  2.09572e-01  1.34601e-02
       H -2.17276e+00  1.26860e+00  4.27378e-01
       H -4.07835e+00  1.58621e+00  7.79544e-01
4
# CELL(abcABC): 1000.00000  1000.00000  1000.00000    90.00000    90.00000    90.00000  Step:          78  Bead:       0 positions{angstrom}  cell{angstrom}
       O -3.14312e+00  1.07165e+00  3.45686e-01
       H -3.24277e+00  2.11936e-01  5.19463e-03
       H -2.17042e+00  1.27693e+00  4.23919e-01
       H -4.08079e+00  1.57087e+00  7.69340e-01
4
# CELL(abcABC): 1000.00000  1000.00000  1000.00000    90.00000    90.00000    90.00000  Step:          79  Bead:       0 positions{angstrom}  cell{angstrom}
       O -3.14304e+00  1.07225e+00  3.47234e-01
       H -3.24057e+00  2.12538e-01 -3.24167e-03
       H -2.17253e+00  1.28290e+00  4.19263e-01
       H -4.08212e+00  1.55481e+00  7.57865e-01
4
# CELL(abcABC): 1000.00000  1000.00000  1000.00000    90.00000    90.00000    90.00000  Step:          80  Bead:       0 positions{angstrom}  cell{angstrom}
       O -3.14282e+00  1.07303e+00  3.48838e-01
       H -3.23693e+00  2.11733e-01 -1.28262e-02
       H -2.17969e+00  1.28713e+00  4.14793e-01
       H -4.08213e+00  1.53897e+00  7.46464e-01
4
# CELL(abcABC): 1000.00000  1000.00000  1000.00000    90.00000    90.00000    90.00000  Step:          81  Bead:       0 positions{angstrom}  cell{angstrom}
       O -3.14247e+00  1.07377e+00  3.50620e-01
       H -3.23007e+00  2.10984e-01 -2.37877e-02
       H -2.19207e+00  1.29197e+00  4.09842e-01
       H -4.08209e+00  1.52316e+00  7.34085e-01
4
# CELL(abcABC): 1000.00000  1000.00000  1000.00000    90.00000    90.00000    90.00000  Step:          82  Bead:       0 positions{angstrom}  cell{angstrom}
       O -3.14202e+00  1.07464e+00  3.52371e-01
       H -3.22138e+00  2.09732e-01 -3.43128e-02
       H -2.20734e+00  1.29478e+00  4.04388e-01
       H -4.08273e+00  1.50766e+00  7.22274e-01
4
# CELL(abcABC): 1000.00000  1000.00000  1000.00000    90.00000    90.00000    90.00000  Step:          83  Bead:       0 positions{angstrom}  cell{angstrom}
       O -3.14160e+00  1.07536e+00  3.54130e-01
       H -3.21153e+00  2.09878e-01 -4.42788e-02
       H -2.22400e+00  1.29774e+00  3.98759e-01
       H -4.08255e+00  1.49320e+00  7.09942e-01
4
# CELL(abcABC): 1000.00000  1000.00000  1000.00000    90.00000    90.00000    90.00000  Step:          84  Bead:       0 positions{angstrom}  cell{angstrom}
       O -3.14129e+00  1.07588e+00  3.55880e-01
       H -3.19957e+00  2.10905e-01 -5.47674e-02
       H -2.24086e+00  1.30139e+00  3.93074e-01
       H -4.08262e+00  1.48022e+00  6.98332e-01
4
# CELL(abcABC): 1000.00000  1000.00000  1000.00000    90.00000    90.00000    90.00000  Step:          85  Bead:       0 positions{angstrom}  cell{angstrom}