4
# CELL(abcABC): 1000.00000  1000.00000  1000.00000    90.00000    90.00000    90.00000  Step:           0  Bead:       0 positions{angstrom}  cell{angstrom}
       O -3.13644e+00  1.06599e+00  3.52116e-01
       H -3.23258e+00  2.77928e-01 -1.16181e-01
       H -2.73255e+00  9.21621e-01  1.16885e+00
       H -3.63489e+00  1.95025e+00  4.37238e-02
4
# CELL(abcABC): 1000.00000  1000.00000  1000.00000    90.00000    90.00000    90.00000  Step:           1  Bead:       0 positions{angstrom}  cell{angstrom}
       O -3.13486e+00  1.06647e+00  3.51503e-01
       H -3.24235e+00  2.68070e-01 -1.13340e-01
       H -2.73081e+00  9.20301e-01  1.17239e+00
       H -3.65188e+00  1.95374e+00  4.70792e-02
4
# CELL(abcABC): 1000.00000  1000.00000  1000.00000    90.00000    90.00000    90.00000  Step:           2  Bead:       0 positions{angstrom}  cell{angstrom}
       O -3.13358e+00  1.06727e+00  3.50732e-01
       H -3.25235e+00  2.54280e-01 -1.12044e-01
       H -2.72463e+00  9.17786e-01  1.18013e+00
       H -3.66844e+00  1.95743e+00  5.02732e-02
4
# CELL(abcABC): 1000.00000  1000.00000  1000.00000    90.00000    90.00000    90.00000  Step:           3  Bead:       0 positions{angstrom}  cell{angstrom}
       O -3.13244e+00  1.06832e+00  3.49764e-01
       H -3.26166e+00  2.36860e-01 -1.09986e-01
       H -2.71662e+00  9.15521e-01  1.19131e+00
       H -3.68529e+00  1.96039e+00  5.24066e-02
4
# CELL(abcABC): 1000.00000  1000.00000  1000.00000    90.00000    90.00000    90.00000  Step:           4  Bead:       0 positions{angstrom}  cell{angstrom}
       O -3.13146e+00  1.06952e+00  3.48804e-01
       H -3.27079e+00  2.17656e-01 -1.08946e-01
       H -2.70681e+00  9.13529e-01  1.20309e+00
       H -3.70149e+00  1.96251e+00  5.48244e-02
4
# CELL(abcABC): 1000.00000  1000.00000  1000.00000    90.00000    90.00000    90.00000  Step:           5  Bead:       0 positions{angstrom}  cell{angstrom}
       O -3.13049e+00  1.07058e+00  3.47867e-01
       H -3.27997e+00  1.99786e-01 -1.07065e-01
       H -2.69744e+00  9.12757e-01  1.21514e+00
       H -3.71703e+00  1.96441e+00  5.57661e-02
4
# CELL(abcABC): 1000.00000  1000.00000  1000.00000    90.00000    90.00000    90.00000  Step:           6  Bead:       0 positions{angstrom}  cell{angstrom}
       O -3.12949e+00  1.07157e+00  3.46999e-01
       H -3.28807e+00  1.85047e-01 -1.04226e-01
       H -2.68931e+00  9.10807e-01  1.22393e+00
       H -3.73288e+00  1.96542e+00  5.79051e-02
4
# CELL(abcABC): 1000.00000  1000.00000  1000.00000    90.00000    90.00000    90.00000  Step:           7  Bead:       0 positions{angstrom}  cell{angstrom}
       O -3.12861e+00  1.07223e+00  3.46010e-01
       H -3.29345e+00  1.74325e-01 -9.76896e-02
       H -2.68258e+00  9.09117e-01  1.23016e+00
       H -3.74829e+00  1.96730e+00  6.08496e-02
4
# CELL(abcABC): 1000.00000  1000.00000  1000.00000    90.00000    90.00000    90.00000  Step:           8  Bead:       0 positions{angstrom}  cell{angstrom}
       O -3.12787e+00  1.07263e+00  3.45174e-01
       H -3.29639e+00  1.68244e-01 -8.92213e-02
       H -2.67648e+00  9.07242e-01  1.23166e+00
       H -3.76325e+00  1.96885e+00  6.41413e-02
4
# CELL(abcABC): 1000.00000  1000.00000  1000.00000    90.00000    90.00000    90.00000  Step:           9  Bead:       0 positions{angstrom}  cell{angstrom}
       O -3.12722e+00  1.07284e+00  3.44329e-01
       H -3.29772e+00  1.66125e-01 -7.71134e-02
       H -2.67112e+00  9.06283e-01  1.22936e+00
       H -3.77748e+00  1.96872e+00  6.77483e-02
4
# CELL(abcABC): 1000.00000  1000.00000  1000.00000    90.00000    90.00000    90.00000  Step:          10  Bead:       0 positions{angstrom}  cell{angstrom}
       O -3.12664e+00  1.07270e+00  3.43741e-01
       H -3.29730e+00  1.68547e-01 -6.35708e-02
       H -2.66737e+00  9.06793e-01  1.22192e+00
       H -3.79084e+00  1.96802e+00  7.09891e-02
4
# CELL(abcABC): 1000.00000  1000.00000  1000.00000    90.00000    90.00000    90.00000  Step:          11  Bead:       0 positions{angstrom}  cell{angstrom}
       O -3.12614e+00  1.07233e+00  3.43430e-01
       H -3.29504e+00  1.75624e-01 -4.96533e-02
       H -2.66647e+00  9.07766e-01  1.21012e+00
       H -3.80206e+00  1.96570e+00  7.38003e-02
4
# CELL(abcABC): 1000.00000  1000.00000  1000.00000    90.00000    90.00000    90.00000  Step:          12  Bead:       0 positions{angstrom}  cell{angstrom}
       O -3.12587e+00  1.07188e+00  3.43318e-01
       H -3.29002e+00  1.85404e-01 -3.50888e-02
       H -2.66676e+00  9.08163e-01  1.19429e+00
       H -3.81101e+00  1.96272e+00  7.68375e-02
4
# CELL(abcABC): 1000.00000  1000.00000  1000.00000    90.00000    90.00000    90.00000  Step:          13  Bead:       0 positions{angstrom}  cell{angstrom}
       O -3.12582e+00  1.07140e+00  3.43279e-01
       H -3.28378e+00  1.97179e-01 -2.01726e-02
       H -2.66615e+00  9.08935e-01  1.17686e+00
       H -3.81868e+00  1.95781e+00  7.99859e-02
4
# CELL(abcABC): 1000.00000  1000.00000  1000.00000    90.00000    90.00000    90.00000  Step:          14  Bead:       0 positions{angstrom}  cell{angstrom}
       O -3.12601e+00  1.07099e+00  3.43252e-01
       H -3.27547e+00  2.08180e-01 -5.71717e-03
       H -2.66458e+00  9.10715e-01  1.15941e+00
       H -3.82548e+00  1.95161e+00  8.33933e-02
4
# CELL(abcABC): 1000.00000  1000.00000  1000.00000    90.00000    90.00000    90.00000  Step:          15  Bead:       0 positions{angstrom}  cell{angstrom}
       O -3.12635e+00  1.07068e+00  3.43012e-01
       H -3.26894e+00  2.16088e-01  8.99426e-03
       H -2.66222e+00  9.13353e-01  1.14393e+00
       H -3.82894e+00  1.94591e+00  8.79780e-02
4
# CELL(abcABC): 1000.00000  1000.00000  1000.00000    90.00000    90.00000    90.00000  Step:          16  Bead:       0 positions{angstrom}  cell{angstrom}
       O -3.12697e+00  1.07064e+00  3.42727e-01
       H -3.26173e+00  2.19124e-01  2.05662e-02
       H -2.65780e+00  9.17394e-01  1.13186e+00
       H -3.83081e+00  1.93953e+00  9.29948e-02
4
# CELL(abcABC): 1000.00000  1000.00000  1000.00000    90.00000    90.00000    90.00000  Step:          17  Bead:       0 positions{angstrom}  cell{angstrom}
       O -3.12773e+00  1.07098e+00  3.42358e-01
       H -3.25453e+00  2.16916e-01  2.89888e-02
       H -2.65154e+00  9.22501e-01  1.12330e+00
       H -3.83215e+00  1.93110e+00  9.89937e-02
4
# CELL(abcABC): 1000.00000  1000.00000  1000.00000    90.00000    90.00000    90.00000  Step:          18  Bead:       0 positions{angstrom}  cell{angstrom}
       O -3.12869e+00  1.07164e+00  3.41885e-01
       H -3.24924e+00  2.09604e-01  3.40621e-02
       H -2.64101e+00  9.28110e-01  1.11966e+00
       H -3.83276e+00  1.92244e+00  1.05072e-01
4
# CELL(abcABC): 1000.00000  1000.00000  1000.00000    90.00000    90.00000    90.00000  Step:          19  Bead:       0 positions{angstrom}  cell{angstrom}
       O -3.12994e+00  1.07266e+00  3.41307e-01
       H -3.24438e+00  1.97042e-01  3.63354e-02
       H -2.62831e+00  9.33818e-01  1.11992e+00
       H -3.83044e+00  1.91306e+00  1.11703e-01
4
# CELL(abcABC): 1000.00000  1000.00000  1000.00000    90.00000    90.00000    90.00000  Step:          20  Bead:       0 positions{angstrom}  cell{angstrom}
       O -3.13135e+00  1.07392e+00  3.40740e-01
       H -3.24009e+00  1.81524e-01  3.45386e-02
       H -2.61426e+00  9.40510e-01  1.12392e+00
       H -3.82643e+00  1.90192e+00  1.18504e-01
4
# CELL(abcABC): 1000.00000  1000.00000  1000.00000    90.00000    90.00000    90.00000  Step:          21  Bead:       0 positions{angstrom}  cell{angstrom}
       O -3.13294e+00  1.07520e+00  3.40257e-01
       H -3.23662e+00  1.64299e-01  2.96430e-02
       H -2.59724e+00  9.48858e-01  1.13087e+00
       H -3.82172e+00  1.89047e+00  1.24112e-01
4
# CELL(abcABC): 1000.00000  1000.00000  1000.00000    90.00000    90.00000    90.00000  Step:          22  Bead:       0 positions{angstrom}  cell{angstrom}
       O -3.13463e+00  1.07625e+00  3.39960e-01
       H -3.23442e+00  1.47308e-01  2.46167e-02
       H -2.57783e+00  9.58739e-01  1.13638e+00
       H -3.81654e+00  1.88087e+00  1.28349e-01
4
# CELL(abcABC): 1000.00000  1000.00000  1000.00000    90.00000    90.00000    90.00000  Step:          23  Bead:       0 positions{angstrom}  cell{angstrom}
       O -3.13632e+00  1.07699e+00  3.40009e-01
       H -3.23202e+00  1.33992e-01  1.87400e-02
       H -2.55827e+00  9.70488e-01  1.14078e+00
       H -3.81170e+00  1.87077e+00  1.29062e-01
4
# CELL(abcABC): 1000.00000  1000.00000  1000.00000    90.00000    90.00000    90.00000  Step:          24  Bead:       0 positions{angstrom}  cell{angstrom}
       O -3.13793e+00  1.07720e+00  3.40276e-01
       H -3.22885e+00  1.24312e-01  1.31198e-02
       H -2.54001e+00  9.84678e-01  1.14257e+00
       H -3.80755e+00  1.86285e+00  1.28641e-01
4
# CELL(abcABC): 1000.00000  1000.00000  1000.00000    90.00000    90.00000    90.00000  Step:          25  Bead:       0 positions{angstrom}  cell{angstrom}
       O -3.13933e+00  1.07701e+00  3.40696e-01
       H -3.22546e+00  1.19250e-01  9.12956e-03
       H -2.52451e+00  9.99464e-01  1.14073e+00
       H -3.80411e+00  1.85619e+00  1.27800e-01
4
# CELL(abcABC): 1000.00000  1000.00000  1000.00000    90.00000    90.00000    90.00000  Step:          26  Bead:       0 positions{angstrom}  cell{angstrom}
       O -3.14052e+00  1.07638e+00  3.41346e-01
       H -3.22173e+00  1.19596e-01  5.57616e-03
       H -2.51162e+00  1.01500e+00  1.13436e+00
       H -3.80193e+00  1.85034e+00  1.27423e-01
4
# CELL(abcABC): 1000.00000  1000.00000  1000.00000    90.00000    90.00000    90.00000  Step:          27  Bead:       0 positions{angstrom}  cell{angstrom}
       O -3.14157e+00  1.07522e+00  3.42272e-01
       H -3.21783e+00  1.26922e-01  2.64519e-03
       H -2.50182e+00  1.03045e+00  1.12318e+00
       H -3.79896e+00  1.84593e+00  1.26835e-01
4
# CELL(abcABC): 1000.00000  1000.00000  1000.00000    90.00000    90.00000    90.00000  Step:          28  Bead:       0 positions{angstrom}  cell{angstrom}
       O -3.14233e+00  1.07361e+00  3.43371e-01
       H -3.21464e+00  1.38086e-01  7.77132e-04
       H -2.49444e+00  1.04650e+00  1.10806e+00
       H -3.79741e+00  1.84426e+00  1.26371e-01
4
# CELL(abcABC): 1000.00000  1000.00000  1000.00000    90.00000    90.00000    90.00000  Step:          29  Bead:       0 positions{angstrom}  cell{angstrom}
       O -3.14292e+00  1.07159e+00  3.44693e-01
       H -3.21044e+00  1.53828e-01 -1.53371e-03
       H -2.49063e+00  1.06269e+00  1.08936e+00
       H -3.79615e+00  1.84440e+00  1.26392e-01
4
# CELL(abcABC): 1000.00000  1000.00000  1000.00000    90.00000    90.00000    90.00000  Step:          30  Bead:       0 positions{angstrom}  cell{angstrom}
       O -3.14335e+00  1.06921e+00  3.46148e-01
       H -3.20554e+00  1.73186e-01 -2.55280e-03
       H -2.48896e+00  1.07874e+00  1.06849e+00
       H -3.79583e+00  1.84676e+00  1.25193e-01
4
# CELL(abcABC): 1000.00000  1000.00000  1000.00000    90.00000    90.00000    90.00000  Step:          31  Bead:       0 positions{angstrom}  cell{angstrom}
       O -3.14384e+00  1.06663e+00  3.47788e-01
       H -3.19884e+00  1.93030e-01 -3.55816e-03
       H -2.48750e+00  1.09561e+00  1.04569e+00
       H -3.79618e+00  1.85104e+00  1.22960e-01
4
# CELL(abcABC): 1000.00000  1000.00000  1000.00000    90.00000    90.00000    90.00000  Step:          32  Bead:       0 positions{angstrom}  cell{angstrom}
       O -3.14432e+00  1.06424e+00  3.49336e-01
       H -3.19290e+00  2.08638e-01 -5.03627e-03
       H -2.48501e+00  1.11332e+00  1.02428e+00
       H -3.79697e+00  1.85559e+00  1.21282e-01
4
# CELL(abcABC): 1000.00000  1000.00000  1000.00000    90.00000    90.00000    90.00000  Step:          33  Bead:       0 positions{angstrom}  cell{angstrom}
       O -3.14490e+00  1.06227e+00  3.50825e-01
       H -3.18737e+00  2.18789e-01 -7.20309e-03
       H -2.48034e+00  1.12951e+00  1.00489e+00
       H -3.79804e+00  1.86055e+00  1.19202e-01
4
# CELL(abcABC): 1000.00000  1000.00000  1000.00000    90.00000    90.00000    90.00000  Step:          34  Bead:       0 positions{angstrom}  cell{angstrom}
       O -3.14552e+00  1.06075e+00  3.52434e-01
       H -3.18128e+00  2.22309e-01 -1.20644e-02
       H -2.47463e+00  1.14465e+00  9.88379e-01
       H -3.79998e+00  1.86599e+00  1.15030e-01
4
# CELL(abcABC): 1000.00000  1000.00000  1000.00000    90.00000    90.00000    90.00000  Step:          35  Bead:       0 positions{angstrom}  cell{angstrom}
       O -3.14642e+00  1.05967e+00  3.54036e-01
       H -3.17326e+00  2.18852e-01 -2.03606e-02
       H -2.46649e+00  1.16013e+00  9.75751e-01
       H -3.80185e+00  1.87116e+00  1.10528e-01
4
# CELL(abcABC): 1000.00000  1000.00000  1000.00000    90.00000    90.00000    90.00000  Step:          36  Bead:       0 positions{angstrom}  cell{angstrom}
       O -3.14763e+00  1.05893e+00  3.55615e-01
       H -3.16459e+00  2.09423e-01 -3.14678e-02
       H -2.45438e+00  1.17630e+00  9.65579e-01
       H -3.80349e+00  1.87615e+00  1.06739e-01
4
# CELL(abcABC): 1000.00000  1000.00000  1000.00000    90.00000    90.00000    90.00000  Step:          37  Bead:       0 positions{angstrom}  cell{angstrom}
       O -3.14916e+00  1.05857e+00  3.57014e-01
       H -3.15472e+00  1.96759e-01 -4.22301e-02
       H -2.43831e+00  1.19112e+00  9.57684e-01
       H -3.80512e+00  1.87963e+00  1.03188e-01
4
# CELL(abcABC): 1000.00000  1000.00000  1000.00000    90.00000    90.00000    90.00000  Step:          38  Bead:       0 positions{angstrom}  cell{angstrom}
       O -3.15074e+00  1.05843e+00  3.58500e-01
       H -3.14518e+00  1.82014e-01 -5.45766e-02
       H -2.41967e+00  1.20384e+00  9.51280e-01
       H -3.80811e+00  1.88392e+00  9.83571e-02
4
# CELL(abcABC): 1000.00000  1000.00000  1000.00000    90.00000    90.00000    90.00000  Step:          39  Bead:       0 positions{angstrom}  cell{angstrom}
       O -3.15263e+00  1.05851e+00  3.59798e-01
       H -3.13424e+00  1.67093e-01 -6.57227e-02
       H -2.39934e+00  1.21408e+00  9.46420e-01
       H -3.80941e+00  1.88735e+00  9.37511e-02
4
# CELL(abcABC): 1000.00000  1000.00000  1000.00000    90.00000    90.00000    90.00000  Step:          40  Bead:       0 positions{angstrom}  cell{angstrom}
       O -3.15460e+00  1.05854e+00  3.60832e-01
       H -3.12269e+00  1.54710e-01 -7.42676e-02
       H -2.37890e+00  1.22283e+00  9.42701e-01
       H -3.81012e+00  1.89049e+00  8.96059e-02
4
# CELL(abcABC): 1000.00000  1000.00000  1000.00000    90.00000    90.00000    90.00000  Step:          41  Bead:       0 positions{angstrom}  cell{angstrom}
       O -3.15650e+00  1.05847e+00  3.61745e-01
       H -3.11104e+00  1.46885e-01 -8.09161e-02
       H -2.35949e+00  1.23002e+00  9.37802e-01
       H -3.81103e+00  1.89222e+00  8.66610e-02
4
# CELL(abcABC): 1000.00000  1000.00000  1000.00000    90.00000    90.00000    90.00000  Step:          42  Bead:       0 positions{angstrom}  cell{angstrom}
       O -3.15835e+00  1.05842e+00  3.62659e-01
       H -3.09773e+00  1.41900e-01 -8.51672e-02
       H -2.34271e+00  1.23512e+00  9.31021e-01
       H -3.81182e+00  1.89290e+00  8.31832e-02
4
# CELL(abcABC): 1000.00000  1000.00000  1000.00000    90.00000    90.00000    90.00000  Step:          43  Bead:       0 positions{angstrom}  cell{angstrom}
       O -3.15994e+00  1.05817e+00  3.63550e-01
       H -3.08469e+00  1.42953e-01 -8.68242e-02
       H -2.32965e+00  1.23932e+00  9.21776e-01
       H -3.81273e+00  1.89160e+00  7.99431e-02
4
# CELL(abcABC): 1000.00000  1000.00000  1000.00000    90.00000    90.00000    90.00000  Step:          44  Bead:       0 positions{angstrom}  cell{angstrom}
       O -3.16119e+00  1.05783e+00  3.64418e-01
       H -3.07167e+00  1.48563e-01 -8.61848e-02
       H -2.32095e+00  1.24088e+00  9.09190e-01
       H -3.81448e+00  1.88993e+00  7.81115e-02
4
# CELL(abcABC): 1000.00000  1000.00000  1000.00000    90.00000    90.00000    90.00000  Step:          45  Bead:       0 positions{angstrom}  cell{angstrom}
       O -3.16202e+00  1.05739e+00  3.65330e-01
       H -3.05963e+00  1.59162e-01 -8.35187e-02
       H -2.31621e+00  1.23968e+00  8.93052e-01
       H -3.81815e+00  1.88742e+00  7.71043e-02
4
# CELL(abcABC): 1000.00000  1000.00000  1000.00000    90.00000    90.00000    90.00000  Step:          46  Bead:       0 positions{angstrom}  cell{angstrom}
       O -3.16255e+00  1.05691e+00  3.66263e-01
       H -3.04822e+00  1.74419e-01 -7.90513e-02
       H -2.31599e+00  1.23575e+00  8.74083e-01
       H -3.82129e+00  1.88381e+00  7.68019e-02
4
# CELL(abcABC): 1000.00000  1000.00000  1000.00000    90.00000    90.00000    90.00000  Step:          47  Bead:       0 positions{angstrom}  cell{angstrom}
       O -3.16276e+00  1.05629e+00  3.67309e-01
       H -3.03742e+00  1.92146e-01 -7.28145e-02
       H -2.31934e+00  1.23054e+00  8.52552e-01
       H -3.82540e+00  1.88114e+00  7.54877e-02
4
# CELL(abcABC): 1000.00000  1000.00000  1000.00000    90.00000    90.00000    90.00000  Step:          48  Bead:       0 positions{angstrom}  cell{angstrom}
       O -3.16273e+00  1.05581e+00  3.68332e-01
       H -3.02678e+00  2.09815e-01 -6.57134e-02
       H -2.32524e+00  1.22493e+00  8.29515e-01
       H -3.83069e+00  1.87668e+00  7.51912e-02
4
# CELL(abcABC): 1000.00000  1000.00000  1000.00000    90.00000    90.00000    90.00000  Step:          49  Bead:       0 positions{angstrom}  cell{angstrom}
       O -3.16261e+00  1.05546e+00  3.69218e-01
       H -3.01671e+00  2.25990e-01 -5.85542e-02
       H -2.33085e+00  1.21872e+00  8.06979e-01
       H -3.83701e+00  1.87221e+00  7.65084e-02
4
# CELL(abcABC): 1000.00000  1000.00000  1000.00000    90.00000    90.00000    90.00000  Step:          50  Bead:       0 positions{angstrom}  cell{angstrom}
       O -3.16231e+00  1.05540e+00  3.70170e-01
       H -3.00761e+00  2.39215e-01 -5.33356e-02
       H -2.33728e+00  1.21216e+00  7.86102e-01
       H -3.84442e+00  1.86652e+00  7.70554e-02
4
# CELL(abcABC): 1000.00000  1000.00000  1000.00000    90.00000    90.00000    90.00000  Step:          51  Bead:       0 positions{angstrom}  cell{angstrom}
       O -3.16214e+00  1.05560e+00  3.71081e-01
       H -2.99954e+00  2.47250e-01 -5.11764e-02
       H -2.34108e+00  1.20706e+00  7.67894e-01
       H -3.85142e+00  1.86036e+00  7.86411e-02
4
# CELL(abcABC): 1000.00000  1000.00000  1000.00000    90.00000    90.00000    90.00000  Step:          52  Bead:       0 positions{angstrom}  cell{angstrom}
       O -3.16217e+00  1.05619e+00  3.72018e-01
       H -2.99269e+00  2.49374e-01 -5.21703e-02
       H -2.34049e+00  1.20322e+00  7.52336e-01
       H -3.85848e+00  1.85278e+00  8.03089e-02
4
# CELL(abcABC): 1000.00000  1000.00000  1000.00000    90.00000    90.00000    90.00000  Step:          53  Bead:       0 positions{angstrom}  cell{angstrom}
       O -3.16248e+00  1.05700e+00  3.72801e-01
       H -2.98633e+00  2.46420e-01 -5.72243e-02
       H -2.33451e+00  1.20309e+00  7.41753e-01
       H -3.86591e+00  1.84299e+00  8.35253e-02
4
# CELL(abcABC): 1000.00000  1000.00000  1000.00000    90.00000    90.00000    90.00000  Step:          54  Bead:       0 positions{angstrom}  cell{angstrom}
       O -3.16299e+00  1.05807e+00  3.73162e-01
       H -2.98145e+00  2.38006e-01 -6.37774e-02
       H -2.32343e+00  1.20617e+00  7.36237e-01
       H -3.87364e+00  1.83134e+00  8.98563e-02
4
# CELL(abcABC): 1000.00000  1000.00000  1000.00000    90.00000    90.00000    90.00000  Step:          55  Bead:       0 positions{angstrom}  cell{angstrom}
       O -3.16368e+00  1.05923e+00  3.73304e-01
       H -2.97892e+00  2.26845e-01 -7.11683e-02
       H -2.30806e+00  1.21169e+00  7.35088e-01
       H -3.88069e+00  1.81860e+00  9.61533e-02
4
# CELL(abcABC): 1000.00000  1000.00000  1000.00000    90.00000    90.00000    90.00000  Step:          56  Bead:       0 positions{angstrom}  cell{angstrom}
       O -3.16440e+00  1.06032e+00  3.73251e-01
       H -2.97626e+00  2.14897e-01 -7.84990e-02
       H -2.29080e+00  1.21890e+00  7.35569e-01
       H -3.88920e+00  1.80604e+00  1.03832e-01
4
# CELL(abcABC): 1000.00000  1000.00000  1000.00000    90.00000    90.00000    90.00000  Step:          57  Bead:       0 positions{angstrom}  cell{angstrom}
       O -3.16491e+00  1.06124e+00  3.72964e-01
       H -2.97424e+00  2.04200e-01 -8.48467e-02
       H -2.27483e+00  1.22712e+00  7.38745e-01
       H -3.89901e+00  1.79387e+00  1.11572e-01
4
# CELL(abcABC): 1000.00000  1000.00000  1000.00000    90.00000    90.00000    90.00000  Step:          58  Bead:       0 positions{angstrom}  cell{angstrom}
       O -3.16518e+00  1.06201e+00  3.72506e-01
       H -2.97341e+00  1.94797e-01 -9.00864e-02
       H -2.26066e+00  1.23631e+00  7.43392e-01
       H -3.90981e+00  1.78181e+00  1.19434e-01
4
# CELL(abcABC): 1000.00000  1000.00000  1000.00000    90.00000    90.00000    90.00000  Step:          59  Bead:       0 positions{angstrom}  cell{angstrom}
       O -3.16507e+00  1.06250e+00  3.71778e-01
       H -2.97389e+00  1.88613e-01 -9.33312e-02
       H -2.24993e+00  1.24650e+00  7.49743e-01
       H -3.92168e+00  1.77007e+00  1.27887e-01
4
# CELL(abcABC): 1000.00000  1000.00000  1000.00000    90.00000    90.00000    90.00000  Step:          60  Bead:       0 positions{angstrom}  cell{angstrom}
       O -3.16453e+00  1.06278e+00  3.70964e-01
       H -2.97753e+00  1.85799e-01 -9.42168e-02
       H -2.24331e+00  1.25614e+00  7.54045e-01
       H -3.93335e+00  1.75878e+00  1.37380e-01
4
# CELL(abcABC): 1000.00000  1000.00000  1000.00000    90.00000    90.00000    90.00000  Step:          61  Bead:       0 positions{angstrom}  cell{angstrom}
       O -3.16357e+00  1.06286e+00  3.70071e-01
       H -2.98220e+00  1.86409e-01 -9.29413e-02
       H -2.24097e+00  1.26522e+00  7.56162e-01
       H -3.94618e+00  1.74785e+00  1.48164e-01
4
# CELL(abcABC): 1000.00000  1000.00000  1000.00000    90.00000    90.00000    90.00000  Step:          62  Bead:       0 positions{angstrom}  cell{angstrom}
       O -3.16205e+00  1.06281e+00  3.69226e-01
       H -2.98933e+00  1.89984e-01 -8.97713e-02
       H -2.24558e+00  1.27316e+00  7.56617e-01
       H -3.95866e+00  1.73709e+00  1.57961e-01
4
# CELL(abcABC): 1000.00000  1000.00000  1000.00000    90.00000    90.00000    90.00000  Step:          63  Bead:       0 positions{angstrom}  cell{angstrom}
       O -3.16001e+00  1.06249e+00  3.68158e-01
       H -2.99748e+00  1.97849e-01 -8.40408e-02
       H -2.25600e+00  1.27951e+00  7.55729e-01
       H -3.97237e+00  1.72794e+00  1.70058e-01
4
# CELL(abcABC): 1000.00000  1000.00000  1000.00000    90.00000    90.00000    90.00000  Step:          64  Bead:       0 positions{angstrom}  cell{angstrom}
       O -3.15765e+00  1.06207e+00  3.67000e-01
       H -3.00538e+00  2.08348e-01 -7.57692e-02
       H -2.27069e+00  1.28475e+00  7.53915e-01
       H -3.98733e+00  1.71889e+00  1.81986e-01
4
# CELL(abcABC): 1000.00000  1000.00000  1000.00000    90.00000    90.00000    90.00000  Step:          65  Bead:       0 positions{angstrom}  cell{angstrom}
       O -3.15504e+00  1.06158e+00  3.65832e-01
       H -3.01458e+00  2.20396e-01 -6.78171e-02
       H -2.28801e+00  1.29049e+00  7.51438e-01
       H -4.00212e+00  1.70887e+00  1.95060e-01
4
# CELL(abcABC): 1000.00000  1000.00000  1000.00000    90.00000    90.00000    90.00000  Step:          66  Bead:       0 positions{angstrom}  cell{angstrom}
       O -3.15237e+00  1.06108e+00  3.64555e-01
       H -3.02394e+00  2.34220e-01 -5.93620e-02
       H -2.30669e+00  1.29433e+00  7.49396e-01
       H -4.01646e+00  1.69913e+00  2.08912e-01
4
# CELL(abcABC): 1000.00000  1000.00000  1000.00000    90.00000    90.00000    90.00000  Step:          67  Bead:       0 positions{angstrom}  cell{angstrom}
       O -3.14973e+00  1.06087e+00  3.63279e-01
       H -3.03262e+00  2.44220e-01 -5.30876e-02
       H -2.32426e+00  1.29827e+00  7.48815e-01
       H -4.03226e+00  1.68854e+00  2.23477e-01
4
# CELL(abcABC): 1000.00000  1000.00000  1000.00000    90.00000    90.00000    90.00000  Step:          68  Bead:       0 positions{angstrom}  cell{angstrom}
       O -3.14737e+00  1.06092e+00  3.62159e-01
       H -3.03980e+00  2.49109e-01 -4.94533e-02
       H -2.33876e+00  1.30282e+00  7.48434e-01
       H -4.04798e+00  1.67829e+00  2.37999e-01
4
# CELL(abcABC): 1000.00000  1000.00000  1000.00000    90.00000    90.00000    90.00000  Step:          69  Bead:       0 positions{angstrom}  cell{angstrom}
       O -3.14536e+00  1.06144e+00  3.60858e-01
       H -3.04618e+00  2.46481e-01 -4.70752e-02
       H -2.34932e+00  1.30848e+00  7.51491e-01
       H -4.06293e+00  1.66699e+00  2.53216e-01
4
# CELL(abcABC): 1000.00000  1000.00000  1000.00000    90.00000    90.00000    90.00000  Step:          70  Bead:       0 positions{angstrom}  cell{angstrom}
       O -3.14401e+00  1.06217e+00  3.59527e-01
       H -3.05084e+00  2.38446e-01 -4.84109e-02
       H -2.35386e+00  1.31622e+00  7.57243e-01
       H -4.07514e+00  1.65582e+00  2.69926e-01
4
# CELL(abcABC): 1000.00000  1000.00000  1000.00000    90.00000    90.00000    90.00000  Step:          71  Bead:       0 positions{angstrom}  cell{angstrom}
       O -3.14314e+00  1.06323e+00  3.58200e-01
       H -3.05481e+00  2.24383e-01 -5.33081e-02
       H -2.35296e+00  1.32471e+00  7.65436e-01
       H -4.08595e+00  1.64446e+00  2.87686e-01
4
# CELL(abcABC): 1000.00000  1000.00000  1000.00000    90.00000    90.00000    90.00000  Step:          72  Bead:       0 positions{angstrom}  cell{angstrom}
       O -3.14277e+00  1.06435e+00  3.56730e-01
       H -3.05708e+00  2.07712e-01 -5.90111e-02
       H -2.34685e+00  1.33427e+00  7.76715e-01
       H -4.09554e+00  1.63379e+00  3.05446e-01
4
# CELL(abcABC): 1000.00000  1000.00000  1000.00000    90.00000    90.00000    90.00000  Step:          73  Bead:       0 positions{angstrom}  cell{angstrom}
       O -3.14274e+00  1.06555e+00  3.55230e-01
       H -3.05820e+00  1.90233e-01 -6.48112e-02
       H -2.33745e+00  1.34446e+00  7.89387e-01
       H -4.10440e+00  1.62205e+00  3.22383e-01
4
# CELL(abcABC): 1000.00000  1000.00000  1000.00000    90.00000    90.00000    90.00000  Step:          74  Bead:       0 positions{angstrom}  cell{angstrom}
       O -3.14297e+00  1.06665e+00  3.53804e-01
       H -3.05779e+00  1.74253e-01 -7.08306e-02
       H -2.32680e+00  1.35417e+00  8.01107e-01
       H -4.11180e+00  1.61090e+00  3.39321e-01
4
# CELL(abcABC): 1000.00000  1000.00000  1000.00000    90.00000    90.00000    90.00000  Step:          75  Bead:       0 positions{angstrom}  cell{angstrom}
       O -3.14315e+00  1.06767e+00  3.52318e-01
       H -3.05674e+00  1.60418e-01 -7.55005e-02
       H -2.31737e+00  1.36207e+00  8.12712e-01
       H -4.11941e+00  1.60060e+00  3.55972e-01
4
# CELL(abcABC): 1000.00000  1000.00000  1000.00000    90.00000    90.00000    90.00000  Step:          76  Bead:       0 positions{angstrom}  cell{angstrom}
       O -3.14341e+00  1.06841e+00  3.50671e-01
       H -3.05379e+00  1.51259e-01 -7.65722e-02
       H -2.31026e+00  1.36823e+00  8.22643e-01
       H -4.12525e+00  1.59193e+00  3.73257e-01
4
# CELL(abcABC): 1000.00000  1000.00000  1000.00000    90.00000    90.00000    90.00000  Step:          77  Bead:       0 positions{angstrom}  cell{angstrom}
       O -3.14352e+00  1.06893e+00  3.48977e-01
       H -3.04994e+00  1.48156e-01 -7.48111e-02
       H -2.30690e+00  1.37247e+00  8.30748e-01
       H -4.13077e+00  1.58253e+00  3.90280e-01
4
# CELL(abcABC): 1000.00000  1000.00000  1000.00000    90.00000    90.00000    90.00000  Step:          78  Bead:       0 positions{angstrom}  cell{angstrom}
       O -3.14345e+00  1.06928e+00  3.47469e-01
       H -3.04633e+00  1.49684e-01 -7.11453e-02
       H -2.30664e+00  1.37486e+00  8.35726e-01
       H -4.13581e+00  1.57297e+00  4.05579e-01
4
# CELL(abcABC): 1000.00000  1000.00000  1000.00000    90.00000    90.00000    90.00000  Step:          79  Bead:       0 positions{angstrom}  cell{angstrom}
       O -3.14329e+00  1.06959e+00  3.45982e-01
       H -3.04252e+00  1.56798e-01 -6.35535e-02
       H -2.30918e+00  1.37381e+00  8.37399e-01
       H -4.13958e+00  1.56207e+00  4.19909e-01
4
# CELL(abcABC): 1000.00000  1000.00000  1000.00000    90.00000    90.00000    90.00000  Step:          80  Bead:       0 positions{angstrom}  cell{angstrom}
       O -3.14309e+00  1.06981e+00  3.44476e-01
       H -3.03748e+00  1.68467e-01 -5.37480e-02
       H -2.31522e+00  1.36995e+00  8.37023e-01
       H -4.14175e+00  1.55070e+00  4.34390e-01
4
# CELL(abcABC): 1000.00000  1000.00000  1000.00000    90.00000    90.00000    90.00000  Step:          81  Bead:       0 positions{angstrom}  cell{angstrom}
       O -3.14285e+00  1.06987e+00  3.43154e-01
       H -3.02949e+00  1.83982e-01 -4.30534e-02
       H -2.32522e+00  1.36570e+00  8.33972e-01
       H -4.14358e+00  1.53855e+00  4.47739e-01
4
# CELL(abcABC): 1000.00000  1000.00000  1000.00000    90.00000    90.00000    90.00000  Step:          82  Bead:       0 positions{angstrom}  cell{angstrom}
       O -3.14255e+00  1.07011e+00  3.41889e-01
       H -3.01989e+00  2.00082e-01 -3.10098e-02
       H -2.33742e+00  1.35846e+00  8.28475e-01
       H -4.14570e+00  1.52579e+00  4.61270e-01
4
# CELL(abcABC): 1000.00000  1000.00000  1000.00000    90.00000    90.00000    90.00000  Step:          83  Bead:       0 positions{angstrom}  cell{angstrom}
       O -3.14231e+00  1.07044e+00  3.40800e-01
       H -3.00922e+00  2.15634e-01 -1.90152e-02
       H -2.35097e+00  1.35049e+00  8.21363e-01
       H -4.14658e+00  1.51307e+00  4.73670e-01
4
# CELL(abcABC): 1000.00000  1000.00000  1000.00000    90.00000    90.00000    90.00000  Step:          84  Bead:       0 positions{angstrom}  cell{angstrom}
       O -3.14218e+00  1.07099e+00  3.39929e-01
       H -2.99633e+00  2.27185e-01 -9.63654e-03
       H -2.36533e+00  1.34247e+00  8.13502e-01
       H -4.14722e+00  1.50072e+00  4.85972e-01
4
# CELL(abcABC): 1000.00000  1000.00000  1000.00000    90.00000    90.00000    90.00000  Step:          85  Bead:       0 positions{angstrom}  cell{angstrom}