4
# CELL(abcABC): 1000.00000  1000.00000  1000.00000    90.00000    90.00000    90.00000  Step:           0  Bead:       0 positions{angstrom}  cell{angstrom}
       O -3.15300e+00  1.06419e+00  3.79573e-01
       H -2.80948e+00  2.11870e-01  7.40189e-02
       H -2.44556e+00  1.68798e+00  5.21056e-01
       H -4.08221e+00  1.27846e+00  6.54515e-02
4
# CELL(abcABC): 1000.00000  1000.00000  1000.00000    90.00000    90.00000    90.00000  Step:           1  Bead:       0 positions{angstrom}  cell{angstrom}
       O -3.15144e+00  1.06441e+00  3.78954e-01
       H -2.81897e+00  2.04891e-01  7.85407e-02
       H -2.44455e+00  1.68806e+00  5.22359e-01
       H -4.09852e+00  1.28186e+00  6.94548e-02
4
# CELL(abcABC): 1000.00000  1000.00000  1000.00000    90.00000    90.00000    90.00000  Step:           2  Bead:       0 positions{angstrom}  cell{angstrom}
       O -3.15026e+00  1.06448e+00  3.78167e-01
       H -2.82815e+00  1.98715e-01  8.41772e-02
       H -2.44016e+00  1.68957e+00  5.23957e-01
       H -4.11250e+00  1.28539e+00  7.47130e-02
4
# CELL(abcABC): 1000.00000  1000.00000  1000.00000    90.00000    90.00000    90.00000  Step:           3  Bead:       0 positions{angstrom}  cell{angstrom}
       O -3.14934e+00  1.06450e+00  3.77146e-01
       H -2.83622e+00  1.91989e-01  9.22253e-02
       H -2.43460e+00  1.69325e+00  5.26437e-01
       H -4.12453e+00  1.28819e+00  8.03841e-02
4
# CELL(abcABC): 1000.00000  1000.00000  1000.00000    90.00000    90.00000    90.00000  Step:           4  Bead:       0 positions{angstrom}  cell{angstrom}
       O -3.14874e+00  1.06452e+00  3.76059e-01
       H -2.84387e+00  1.84710e-01  9.98379e-02
       H -2.42759e+00  1.69812e+00  5.28632e-01
       H -4.13342e+00  1.29022e+00  8.78317e-02
4
# CELL(abcABC): 1000.00000  1000.00000  1000.00000    90.00000    90.00000    90.00000  Step:           5  Bead:       0 positions{angstrom}  cell{angstrom}
       O -3.14830e+00  1.06444e+00  3.74881e-01
       H -2.85162e+00  1.78201e-01  1.07869e-01
       H -2.42117e+00  1.70399e+00  5.31868e-01
       H -4.13904e+00  1.29217e+00  9.52692e-02
4
# CELL(abcABC): 1000.00000  1000.00000  1000.00000    90.00000    90.00000    90.00000  Step:           6  Bead:       0 positions{angstrom}  cell{angstrom}
       O -3.14797e+00  1.06449e+00  3.73625e-01
       H -2.85857e+00  1.72745e-01  1.15634e-01
       H -2.41610e+00  1.70738e+00  5.34002e-01
       H -4.14239e+00  1.29343e+00  1.05309e-01
4
# CELL(abcABC): 1000.00000  1000.00000  1000.00000    90.00000    90.00000    90.00000  Step:           7  Bead:       0 positions{angstrom}  cell{angstrom}
       O -3.14788e+00  1.06453e+00  3.72076e-01
       H -2.86327e+00  1.68105e-01  1.25337e-01
       H -2.41246e+00  1.70896e+00  5.36731e-01
       H -4.14280e+00  1.29584e+00  1.17463e-01
4
# CELL(abcABC): 1000.00000  1000.00000  1000.00000    90.00000    90.00000    90.00000  Step:           8  Bead:       0 positions{angstrom}  cell{angstrom}
       O -3.14804e+00  1.06469e+00  3.70489e-01
       H -2.86612e+00  1.64263e-01  1.34999e-01
       H -2.40941e+00  1.70774e+00  5.38575e-01
       H -4.14051e+00  1.29832e+00  1.31150e-01
4
# CELL(abcABC): 1000.00000  1000.00000  1000.00000    90.00000    90.00000    90.00000  Step:           9  Bead:       0 positions{angstrom}  cell{angstrom}
       O -3.14838e+00  1.06506e+00  3.68689e-01
       H -2.86803e+00  1.60348e-01  1.46355e-01
       H -2.40706e+00  1.70452e+00  5.40759e-01
       H -4.13553e+00  1.29960e+00  1.46183e-01
4
# CELL(abcABC): 1000.00000  1000.00000  1000.00000    90.00000    90.00000    90.00000  Step:          10  Bead:       0 positions{angstrom}  cell{angstrom}
       O -3.14884e+00  1.06548e+00  3.66934e-01
       H -2.86885e+00  1.57198e-01  1.57470e-01
       H -2.40633e+00  1.69975e+00  5.41961e-01
       H -4.12816e+00  1.30096e+00  1.61711e-01
4
# CELL(abcABC): 1000.00000  1000.00000  1000.00000    90.00000    90.00000    90.00000  Step:          11  Bead:       0 positions{angstrom}  cell{angstrom}
       O -3.14938e+00  1.06599e+00  3.65259e-01
       H -2.86847e+00  1.55606e-01  1.67732e-01
       H -2.40857e+00  1.69258e+00  5.42527e-01
       H -4.11766e+00  1.30149e+00  1.77485e-01
4
# CELL(abcABC): 1000.00000  1000.00000  1000.00000    90.00000    90.00000    90.00000  Step:          12  Bead:       0 positions{angstrom}  cell{angstrom}
       O -3.15014e+00  1.06663e+00  3.63608e-01
       H -2.86583e+00  1.54705e-01  1.78034e-01
       H -2.41222e+00  1.68247e+00  5.41958e-01
       H -4.10459e+00  1.30235e+00  1.93954e-01
4
# CELL(abcABC): 1000.00000  1000.00000  1000.00000    90.00000    90.00000    90.00000  Step:          13  Bead:       0 positions{angstrom}  cell{angstrom}
       O -3.15104e+00  1.06730e+00  3.61896e-01
       H -2.86226e+00  1.55320e-01  1.88903e-01
       H -2.41528e+00  1.67119e+00  5.41429e-01
       H -4.09076e+00  1.30247e+00  2.10788e-01
4
# CELL(abcABC): 1000.00000  1000.00000  1000.00000    90.00000    90.00000    90.00000  Step:          14  Bead:       0 positions{angstrom}  cell{angstrom}
       O -3.15207e+00  1.06790e+00  3.60107e-01
       H -2.85663e+00  1.56513e-01  2.00485e-01
       H -2.41786e+00  1.66027e+00  5.41104e-01
       H -4.07754e+00  1.30271e+00  2.27923e-01
4
# CELL(abcABC): 1000.00000  1000.00000  1000.00000    90.00000    90.00000    90.00000  Step:          15  Bead:       0 positions{angstrom}  cell{angstrom}
       O -3.15305e+00  1.06828e+00  3.58061e-01
       H -2.85250e+00  1.57972e-01  2.14502e-01
       H -2.42046e+00  1.65043e+00  5.41406e-01
       H -4.06344e+00  1.30505e+00  2.46091e-01
4
# CELL(abcABC): 1000.00000  1000.00000  1000.00000    90.00000    90.00000    90.00000  Step:          16  Bead:       0 positions{angstrom}  cell{angstrom}
       O -3.15406e+00  1.06842e+00  3.55968e-01
       H -2.84709e+00  1.59596e-01  2.28414e-01
       H -2.42210e+00  1.64300e+00  5.42399e-01
       H -4.05128e+00  1.30849e+00  2.64407e-01
4
# CELL(abcABC): 1000.00000  1000.00000  1000.00000    90.00000    90.00000    90.00000  Step:          17  Bead:       0 positions{angstrom}  cell{angstrom}
       O -3.15488e+00  1.06837e+00  3.53826e-01
       H -2.84097e+00  1.61980e-01  2.42710e-01
       H -2.42332e+00  1.63811e+00  5.43172e-01
       H -4.04311e+00  1.31182e+00  2.83341e-01
4
# CELL(abcABC): 1000.00000  1000.00000  1000.00000    90.00000    90.00000    90.00000  Step:          18  Bead:       0 positions{angstrom}  cell{angstrom}
       O -3.15552e+00  1.06802e+00  3.51642e-01
       H -2.83604e+00  1.65177e-01  2.57252e-01
       H -2.42186e+00  1.63546e+00  5.44639e-01
       H -4.03935e+00  1.31684e+00  3.02001e-01
4
# CELL(abcABC): 1000.00000  1000.00000  1000.00000    90.00000    90.00000    90.00000  Step:          19  Bead:       0 positions{angstrom}  cell{angstrom}
       O -3.15606e+00  1.06754e+00  3.49413e-01
       H -2.83094e+00  1.67759e-01  2.72200e-01
       H -2.41978e+00  1.63444e+00  5.46130e-01
       H -4.03801e+00  1.32292e+00  3.20932e-01
4
# CELL(abcABC): 1000.00000  1000.00000  1000.00000    90.00000    90.00000    90.00000  Step:          20  Bead:       0 positions{angstrom}  cell{angstrom}
       O -3.15636e+00  1.06697e+00  3.47234e-01
       H -2.82603e+00  1.69893e-01  2.85571e-01
       H -2.41761e+00  1.63556e+00  5.48414e-01
       H -4.04021e+00  1.32872e+00  3.39878e-01
4
# CELL(abcABC): 1000.00000  1000.00000  1000.00000    90.00000    90.00000    90.00000  Step:          21  Bead:       0 positions{angstrom}  cell{angstrom}
       O -3.15652e+00  1.06632e+00  3.45140e-01
       H -2.82187e+00  1.70295e-01  2.97452e-01
       H -2.41318e+00  1.63895e+00  5.52024e-01
       H -4.04637e+00  1.33522e+00  3.57619e-01
4
# CELL(abcABC): 1000.00000  1000.00000  1000.00000    90.00000    90.00000    90.00000  Step:          22  Bead:       0 positions{angstrom}  cell{angstrom}
       O -3.15651e+00  1.06558e+00  3.43186e-01
       H -2.81922e+00  1.68471e-01  3.09871e-01
       H -2.40660e+00  1.64373e+00  5.54131e-01
       H -4.05577e+00  1.34400e+00  3.74104e-01
4
# CELL(abcABC): 1000.00000  1000.00000  1000.00000    90.00000    90.00000    90.00000  Step:          23  Bead:       0 positions{angstrom}  cell{angstrom}
       O -3.15631e+00  1.06488e+00  3.41497e-01
       H -2.81690e+00  1.65939e-01  3.21283e-01
       H -2.39981e+00  1.64940e+00  5.56385e-01
       H -4.06799e+00  1.35201e+00  3.87257e-01
4
# CELL(abcABC): 1000.00000  1000.00000  1000.00000    90.00000    90.00000    90.00000  Step:          24  Bead:       0 positions{angstrom}  cell{angstrom}
       O -3.15593e+00  1.06418e+00  3.39920e-01
       H -2.81461e+00  1.61411e-01  3.32142e-01
       H -2.39404e+00  1.65580e+00  5.58321e-01
       H -4.08203e+00  1.36125e+00  3.99488e-01
4
# CELL(abcABC): 1000.00000  1000.00000  1000.00000    90.00000    90.00000    90.00000  Step:          25  Bead:       0 positions{angstrom}  cell{angstrom}
       O -3.15532e+00  1.06370e+00  3.38380e-01
       H -2.81311e+00  1.55372e-01  3.43327e-01
       H -2.39068e+00  1.66053e+00  5.59596e-01
       H -4.09658e+00  1.37015e+00  4.11482e-01
4
# CELL(abcABC): 1000.00000  1000.00000  1000.00000    90.00000    90.00000    90.00000  Step:          26  Bead:       0 positions{angstrom}  cell{angstrom}
       O -3.15453e+00  1.06345e+00  3.36953e-01
       H -2.81254e+00  1.48795e-01  3.53333e-01
       H -2.38942e+00  1.66347e+00  5.59654e-01
       H -4.11100e+00  1.37772e+00  4.24066e-01
4
# CELL(abcABC): 1000.00000  1000.00000  1000.00000    90.00000    90.00000    90.00000  Step:          27  Bead:       0 positions{angstrom}  cell{angstrom}
       O -3.15370e+00  1.06333e+00  3.35701e-01
       H -2.81323e+00  1.43966e-01  3.62176e-01
       H -2.39065e+00  1.66382e+00  5.58265e-01
       H -4.12221e+00  1.38419e+00  4.36475e-01
4
# CELL(abcABC): 1000.00000  1000.00000  1000.00000    90.00000    90.00000    90.00000  Step:          28  Bead:       0 positions{angstrom}  cell{angstrom}
       O -3.15274e+00  1.06333e+00  3.34544e-01
       H -2.81612e+00  1.38864e-01  3.70331e-01
       H -2.39361e+00  1.66257e+00  5.56016e-01
       H -4.13168e+00  1.39058e+00  4.48948e-01
4
# CELL(abcABC): 1000.00000  1000.00000  1000.00000    90.00000    90.00000    90.00000  Step:          29  Bead:       0 positions{angstrom}  cell{angstrom}
       O -3.15178e+00  1.06337e+00  3.33560e-01
       H -2.81951e+00  1.35747e-01  3.76473e-01
       H -2.39945e+00  1.65975e+00  5.52718e-01
       H -4.13773e+00  1.39583e+00  4.61715e-01
4
# CELL(abcABC): 1000.00000  1000.00000  1000.00000    90.00000    90.00000    90.00000  Step:          30  Bead:       0 positions{angstrom}  cell{angstrom}
       O -3.15086e+00  1.06334e+00  3.32697e-01
       H -2.82364e+00  1.35511e-01  3.82733e-01
       H -2.40683e+00  1.65583e+00  5.48943e-01
       H -4.14070e+00  1.40039e+00  4.72930e-01
4
# CELL(abcABC): 1000.00000  1000.00000  1000.00000    90.00000    90.00000    90.00000  Step:          31  Bead:       0 positions{angstrom}  cell{angstrom}
       O -3.15021e+00  1.06320e+00  3.32043e-01
       H -2.82721e+00  1.37217e-01  3.88522e-01
       H -2.41406e+00  1.65264e+00  5.43849e-01
       H -4.14022e+00  1.40411e+00  4.82623e-01
4
# CELL(abcABC): 1000.00000  1000.00000  1000.00000    90.00000    90.00000    90.00000  Step:          32  Bead:       0 positions{angstrom}  cell{angstrom}
       O -3.14974e+00  1.06313e+00  3.31350e-01
       H -2.83255e+00  1.38527e-01  3.94263e-01
       H -2.42042e+00  1.65098e+00  5.39486e-01
       H -4.13611e+00  1.40559e+00  4.92236e-01
4
# CELL(abcABC): 1000.00000  1000.00000  1000.00000    90.00000    90.00000    90.00000  Step:          33  Bead:       0 positions{angstrom}  cell{angstrom}
       O -3.14949e+00  1.06316e+00  3.30683e-01
       H -2.83913e+00  1.40272e-01  4.00577e-01
       H -2.42537e+00  1.64913e+00  5.35316e-01
       H -4.12843e+00  1.40527e+00  5.00680e-01
4
# CELL(abcABC): 1000.00000  1000.00000  1000.00000    90.00000    90.00000    90.00000  Step:          34  Bead:       0 positions{angstrom}  cell{angstrom}
       O -3.14940e+00  1.06319e+00  3.30243e-01
       H -2.84582e+00  1.42534e-01  4.06054e-01
       H -2.43052e+00  1.64803e+00  5.31340e-01
       H -4.11806e+00  1.40359e+00  5.06164e-01
4
# CELL(abcABC): 1000.00000  1000.00000  1000.00000    90.00000    90.00000    90.00000  Step:          35  Bead:       0 positions{angstrom}  cell{angstrom}
       O -3.14965e+00  1.06316e+00  3.29933e-01
       H -2.85118e+00  1.44952e-01  4.10073e-01
       H -2.43472e+00  1.64952e+00  5.28040e-01
       H -4.10454e+00  1.40014e+00  5.10371e-01
4
# CELL(abcABC): 1000.00000  1000.00000  1000.00000    90.00000    90.00000    90.00000  Step:          36  Bead:       0 positions{angstrom}  cell{angstrom}
       O -3.15024e+00  1.06303e+00  3.29768e-01
       H -2.85649e+00  1.47203e-01  4.12821e-01
       H -2.43635e+00  1.65414e+00  5.23953e-01
       H -4.08828e+00  1.39542e+00  5.14317e-01
4
# CELL(abcABC): 1000.00000  1000.00000  1000.00000    90.00000    90.00000    90.00000  Step:          37  Bead:       0 positions{angstrom}  cell{angstrom}
       O -3.15115e+00  1.06295e+00  3.29619e-01
       H -2.86117e+00  1.49699e-01  4.16568e-01
       H -2.43517e+00  1.65982e+00  5.19335e-01
       H -4.07027e+00  1.38848e+00  5.17556e-01
4
# CELL(abcABC): 1000.00000  1000.00000  1000.00000    90.00000    90.00000    90.00000  Step:          38  Bead:       0 positions{angstrom}  cell{angstrom}
       O -3.15210e+00  1.06291e+00  3.29756e-01
       H -2.86669e+00  1.51039e-01  4.18392e-01
       H -2.43201e+00  1.66558e+00  5.14222e-01
       H -4.05277e+00  1.38208e+00  5.18676e-01
4
# CELL(abcABC): 1000.00000  1000.00000  1000.00000    90.00000    90.00000    90.00000  Step:          39  Bead:       0 positions{angstrom}  cell{angstrom}
       O -3.15333e+00  1.06305e+00  3.29903e-01
       H -2.87116e+00  1.50575e-01  4.20025e-01
       H -2.42702e+00  1.67074e+00  5.09626e-01
       H -4.03379e+00  1.37502e+00  5.19313e-01
4
# CELL(abcABC): 1000.00000  1000.00000  1000.00000    90.00000    90.00000    90.00000  Step:          40  Bead:       0 positions{angstrom}  cell{angstrom}
       O -3.15460e+00  1.06324e+00  3.29963e-01
       H -2.87526e+00  1.49047e-01  4.21940e-01
       H -2.42096e+00  1.67595e+00  5.06138e-01
       H -4.01570e+00  1.36837e+00  5.19925e-01
4
# CELL(abcABC): 1000.00000  1000.00000  1000.00000    90.00000    90.00000    90.00000  Step:          41  Bead:       0 positions{angstrom}  cell{angstrom}
       O -3.15571e+00  1.06348e+00  3.30050e-01
       H -2.87933e+00  1.47210e-01  4.22768e-01
       H -2.41421e+00  1.68076e+00  5.02328e-01
       H -4.00064e+00  1.36158e+00  5.21531e-01
4
# CELL(abcABC): 1000.00000  1000.00000  1000.00000    90.00000    90.00000    90.00000  Step:          42  Bead:       0 positions{angstrom}  cell{angstrom}
       O -3.15667e+00  1.06394e+00  3.30250e-01
       H -2.88161e+00  1.42660e-01  4.22608e-01
       H -2.40781e+00  1.68420e+00  4.98149e-01
       H -3.98955e+00  1.35549e+00  5.22691e-01
4
# CELL(abcABC): 1000.00000  1000.00000  1000.00000    90.00000    90.00000    90.00000  Step:          43  Bead:       0 positions{angstrom}  cell{angstrom}
       O -3.15723e+00  1.06438e+00  3.30515e-01
       H -2.88393e+00  1.38613e-01  4.21388e-01
       H -2.40246e+00  1.68709e+00  4.93411e-01
       H -3.98373e+00  1.34961e+00  5.24438e-01
4
# CELL(abcABC): 1000.00000  1000.00000  1000.00000    90.00000    90.00000    90.00000  Step:          44  Bead:       0 positions{angstrom}  cell{angstrom}
       O -3.15730e+00  1.06489e+00  3.30826e-01
       H -2.88587e+00  1.34038e-01  4.18805e-01
       H -2.39863e+00  1.68733e+00  4.87383e-01
       H -3.98451e+00  1.34581e+00  5.28115e-01
4
# CELL(abcABC): 1000.00000  1000.00000  1000.00000    90.00000    90.00000    90.00000  Step:          45  Bead:       0 positions{angstrom}  cell{angstrom}
       O -3.15680e+00  1.06544e+00  3.31244e-01
       H -2.88823e+00  1.30234e-01  4.14776e-01
       H -2.39585e+00  1.68462e+00  4.79753e-01
       H -3.99286e+00  1.34364e+00  5.33147e-01
4
# CELL(abcABC): 1000.00000  1000.00000  1000.00000    90.00000    90.00000    90.00000  Step:          46  Bead:       0 positions{angstrom}  cell{angstrom}
       O -3.15592e+00  1.06600e+00  3.31750e-01
       H -2.89053e+00  1.28056e-01  4.09507e-01
       H -2.39481e+00  1.67884e+00  4.70916e-01
       H -4.00550e+00  1.34267e+00  5.39222e-01
4
# CELL(abcABC): 1000.00000  1000.00000  1000.00000    90.00000    90.00000    90.00000  Step:          47  Bead:       0 positions{angstrom}  cell{angstrom}
       O -3.15471e+00  1.06643e+00  3.32446e-01
       H -2.89256e+00  1.26792e-01  4.03677e-01
       H -2.39483e+00  1.67146e+00  4.60577e-01
       H -4.02267e+00  1.34457e+00  5.44337e-01
4
# CELL(abcABC): 1000.00000  1000.00000  1000.00000    90.00000    90.00000    90.00000  Step:          48  Bead:       0 positions{angstrom}  cell{angstrom}
       O -3.15331e+00  1.06689e+00  3.33211e-01
       H -2.89379e+00  1.25707e-01  3.97341e-01
       H -2.39543e+00  1.66339e+00  4.48974e-01
       H -4.04311e+00  1.34628e+00  5.50135e-01
4
# CELL(abcABC): 1000.00000  1000.00000  1000.00000    90.00000    90.00000    90.00000  Step:          49  Bead:       0 positions{angstrom}  cell{angstrom}
       O -3.15192e+00  1.06730e+00  3.33951e-01
       H -2.89454e+00  1.25377e-01  3.90793e-01
       H -2.39466e+00  1.65443e+00  4.37084e-01
       H -4.06513e+00  1.34918e+00  5.56819e-01
4
# CELL(abcABC): 1000.00000  1000.00000  1000.00000    90.00000    90.00000    90.00000  Step:          50  Bead:       0 positions{angstrom}  cell{angstrom}
       O -3.15048e+00  1.06768e+00  3.34890e-01
       H -2.89517e+00  1.26323e-01  3.83182e-01
       H -2.39473e+00  1.64480e+00  4.24970e-01
       H -4.08737e+00  1.35172e+00  5.61648e-01
4
# CELL(abcABC): 1000.00000  1000.00000  1000.00000    90.00000    90.00000    90.00000  Step:          51  Bead:       0 positions{angstrom}  cell{angstrom}
       O -3.14928e+00  1.06796e+00  3.35948e-01
       H -2.89571e+00  1.27823e-01  3.74385e-01
       H -2.39342e+00  1.63631e+00  4.12487e-01
       H -4.10713e+00  1.35435e+00  5.66126e-01
4
# CELL(abcABC): 1000.00000  1000.00000  1000.00000    90.00000    90.00000    90.00000  Step:          52  Bead:       0 positions{angstrom}  cell{angstrom}
       O -3.14840e+00  1.06822e+00  3.37230e-01
       H -2.89621e+00  1.29814e-01  3.64887e-01
       H -2.39006e+00  1.62871e+00  3.98680e-01
       H -4.12397e+00  1.35587e+00  5.69078e-01
4
# CELL(abcABC): 1000.00000  1000.00000  1000.00000    90.00000    90.00000    90.00000  Step:          53  Bead:       0 positions{angstrom}  cell{angstrom}
       O -3.14794e+00  1.06834e+00  3.38596e-01
       H -2.89569e+00  1.32745e-01  3.53816e-01
       H -2.38435e+00  1.62441e+00  3.85320e-01
       H -4.13750e+00  1.35529e+00  5.71835e-01
4
# CELL(abcABC): 1000.00000  1000.00000  1000.00000    90.00000    90.00000    90.00000  Step:          54  Bead:       0 positions{angstrom}  cell{angstrom}
       O -3.14788e+00  1.06847e+00  3.39810e-01
       H -2.89479e+00  1.34842e-01  3.43248e-01
       H -2.37656e+00  1.62278e+00  3.72548e-01
       H -4.14715e+00  1.35275e+00  5.75903e-01
4
# CELL(abcABC): 1000.00000  1000.00000  1000.00000    90.00000    90.00000    90.00000  Step:          55  Bead:       0 positions{angstrom}  cell{angstrom}
       O -3.14827e+00  1.06858e+00  3.41090e-01
       H -2.89402e+00  1.36904e-01  3.32971e-01
       H -2.36677e+00  1.62290e+00  3.60268e-01
       H -4.15157e+00  1.34879e+00  5.78140e-01
4
# CELL(abcABC): 1000.00000  1000.00000  1000.00000    90.00000    90.00000    90.00000  Step:          56  Bead:       0 positions{angstrom}  cell{angstrom}
       O -3.14908e+00  1.06867e+00  3.42458e-01
       H -2.89063e+00  1.38850e-01  3.22901e-01
       H -2.35621e+00  1.62387e+00  3.46727e-01
       H -4.15268e+00  1.34448e+00  5.80038e-01
4
# CELL(abcABC): 1000.00000  1000.00000  1000.00000    90.00000    90.00000    90.00000  Step:          57  Bead:       0 positions{angstrom}  cell{angstrom}
       O -3.15016e+00  1.06877e+00  3.43856e-01
       H -2.88521e+00  1.40900e-01  3.13046e-01
       H -2.34684e+00  1.62485e+00  3.34049e-01
       H -4.15024e+00  1.33989e+00  5.80381e-01
4
# CELL(abcABC): 1000.00000  1000.00000  1000.00000    90.00000    90.00000    90.00000  Step:          58  Bead:       0 positions{angstrom}  cell{angstrom}
       O -3.15154e+00  1.06899e+00  3.45325e-01
       H -2.87829e+00  1.41703e-01  3.02813e-01
       H -2.33817e+00  1.62576e+00  3.21985e-01
       H -4.14403e+00  1.33462e+00  5.79356e-01
4
# CELL(abcABC): 1000.00000  1000.00000  1000.00000    90.00000    90.00000    90.00000  Step:          59  Bead:       0 positions{angstrom}  cell{angstrom}
       O -3.15310e+00  1.06926e+00  3.46734e-01
       H -2.87019e+00  1.42329e-01  2.92549e-01
       H -2.33109e+00  1.62665e+00  3.11647e-01
       H -4.13439e+00  1.32887e+00  5.77588e-01
4
# CELL(abcABC): 1000.00000  1000.00000  1000.00000    90.00000    90.00000    90.00000  Step:          60  Bead:       0 positions{angstrom}  cell{angstrom}
       O -3.15475e+00  1.06966e+00  3.48229e-01
       H -2.86310e+00  1.42594e-01  2.82333e-01
       H -2.32581e+00  1.62605e+00  3.00028e-01
       H -4.12052e+00  1.32282e+00  5.75701e-01
4
# CELL(abcABC): 1000.00000  1000.00000  1000.00000    90.00000    90.00000    90.00000  Step:          61  Bead:       0 positions{angstrom}  cell{angstrom}
       O -3.15647e+00  1.07017e+00  3.49769e-01
       H -2.85536e+00  1.42687e-01  2.71922e-01
       H -2.32235e+00  1.62412e+00  2.87541e-01
       H -4.10450e+00  1.31652e+00  5.74155e-01
4
# CELL(abcABC): 1000.00000  1000.00000  1000.00000    90.00000    90.00000    90.00000  Step:          62  Bead:       0 positions{angstrom}  cell{angstrom}
       O -3.15798e+00  1.07081e+00  3.51433e-01
       H -2.84899e+00  1.42712e-01  2.61227e-01
       H -2.32353e+00  1.62051e+00  2.75071e-01
       H -4.08575e+00  1.31005e+00  5.70906e-01
4
# CELL(abcABC): 1000.00000  1000.00000  1000.00000    90.00000    90.00000    90.00000  Step:          63  Bead:       0 positions{angstrom}  cell{angstrom}
       O -3.15920e+00  1.07132e+00  3.52906e-01
       H -2.84324e+00  1.44897e-01  2.51282e-01
       H -2.32855e+00  1.61511e+00  2.63026e-01
       H -4.06712e+00  1.30519e+00  5.69519e-01
4
# CELL(abcABC): 1000.00000  1000.00000  1000.00000    90.00000    90.00000    90.00000  Step:          64  Bead:       0 positions{angstrom}  cell{angstrom}
       O -3.16014e+00  1.07174e+00  3.54270e-01
       H -2.83750e+00  1.48756e-01  2.42702e-01
       H -2.33644e+00  1.60885e+00  2.51647e-01
       H -4.05002e+00  1.30086e+00  5.67815e-01
4
# CELL(abcABC): 1000.00000  1000.00000  1000.00000    90.00000    90.00000    90.00000  Step:          65  Bead:       0 positions{angstrom}  cell{angstrom}
       O -3.16071e+00  1.07196e+00  3.55564e-01
       H -2.83402e+00  1.54649e-01  2.33489e-01
       H -2.34629e+00  1.60382e+00  2.40748e-01
       H -4.03455e+00  1.29646e+00  5.67397e-01
4
# CELL(abcABC): 1000.00000  1000.00000  1000.00000    90.00000    90.00000    90.00000  Step:          66  Bead:       0 positions{angstrom}  cell{angstrom}
       O -3.16089e+00  1.07189e+00  3.56649e-01
       H -2.83224e+00  1.64304e-01  2.25443e-01
       H -2.35783e+00  1.59805e+00  2.30767e-01
       H -4.02192e+00  1.29369e+00  5.68198e-01
4
# CELL(abcABC): 1000.00000  1000.00000  1000.00000    90.00000    90.00000    90.00000  Step:          67  Bead:       0 positions{angstrom}  cell{angstrom}
       O -3.16059e+00  1.07168e+00  3.57604e-01
       H -2.83175e+00  1.73586e-01  2.17015e-01
       H -2.36965e+00  1.59399e+00  2.21814e-01
       H -4.01530e+00  1.29180e+00  5.70415e-01
4
# CELL(abcABC): 1000.00000  1000.00000  1000.00000    90.00000    90.00000    90.00000  Step:          68  Bead:       0 positions{angstrom}  cell{angstrom}
       O -3.15996e+00  1.07120e+00  3.58585e-01
       H -2.83204e+00  1.82209e-01  2.08617e-01
       H -2.38081e+00  1.59256e+00  2.11632e-01
       H -4.01395e+00  1.29220e+00  5.73434e-01
4
# CELL(abcABC): 1000.00000  1000.00000  1000.00000    90.00000    90.00000    90.00000  Step:          69  Bead:       0 positions{angstrom}  cell{angstrom}
       O -3.15896e+00  1.07063e+00  3.59284e-01
       H -2.83386e+00  1.87925e-01  2.02049e-01
       H -2.39138e+00  1.59453e+00  2.02530e-01
       H -4.01737e+00  1.29356e+00  5.78009e-01
4
# CELL(abcABC): 1000.00000  1000.00000  1000.00000    90.00000    90.00000    90.00000  Step:          70  Bead:       0 positions{angstrom}  cell{angstrom}
       O -3.15792e+00  1.06975e+00  3.59911e-01
       H -2.83619e+00  1.92041e-01  1.94637e-01
       H -2.39968e+00  1.60113e+00  1.93143e-01
       H -4.02328e+00  1.29693e+00  5.84851e-01
4
# CELL(abcABC): 1000.00000  1000.00000  1000.00000    90.00000    90.00000    90.00000  Step:          71  Bead:       0 positions{angstrom}  cell{angstrom}
       O -3.15671e+00  1.06880e+00  3.60555e-01
       H -2.83984e+00  1.92214e-01  1.85796e-01
       H -2.40614e+00  1.61117e+00  1.83218e-01
       H -4.03235e+00  1.30174e+00  5.93389e-01
4
# CELL(abcABC): 1000.00000  1000.00000  1000.00000    90.00000    90.00000    90.00000  Step:          72  Bead:       0 positions{angstrom}  cell{angstrom}
       O -3.15549e+00  1.06766e+00  3.61118e-01
       H -2.84359e+00  1.89644e-01  1.77136e-01
       H -2.41032e+00  1.62504e+00  1.73953e-01
       H -4.04381e+00  1.30851e+00  6.02385e-01
4
# CELL(abcABC): 1000.00000  1000.00000  1000.00000    90.00000    90.00000    90.00000  Step:          73  Bead:       0 positions{angstrom}  cell{angstrom}
       O -3.15422e+00  1.06652e+00  3.61728e-01
       H -2.84781e+00  1.84098e-01  1.68224e-01
       H -2.41308e+00  1.64219e+00  1.64764e-01
       H -4.05704e+00  1.31505e+00  6.10799e-01
4
# CELL(abcABC): 1000.00000  1000.00000  1000.00000    90.00000    90.00000    90.00000  Step:          74  Bead:       0 positions{angstrom}  cell{angstrom}
       O -3.15298e+00  1.06533e+00  3.62477e-01
       H -2.85199e+00  1.76388e-01  1.57974e-01
       H -2.41539e+00  1.66122e+00  1.54676e-01
       H -4.07023e+00  1.32258e+00  6.19241e-01
4
# CELL(abcABC): 1000.00000  1000.00000  1000.00000    90.00000    90.00000    90.00000  Step:          75  Bead:       0 positions{angstrom}  cell{angstrom}
       O -3.15157e+00  1.06424e+00  3.63204e-01
       H -2.85698e+00  1.66314e-01  1.47261e-01
       H -2.41888e+00  1.68027e+00  1.45871e-01
       H -4.08403e+00  1.33096e+00  6.27232e-01
4
# CELL(abcABC): 1000.00000  1000.00000  1000.00000    90.00000    90.00000    90.00000  Step:          76  Bead:       0 positions{angstrom}  cell{angstrom}
       O -3.15024e+00  1.06310e+00  3.63771e-01
       H -2.86152e+00  1.56214e-01  1.37921e-01
       H -2.42392e+00  1.69886e+00  1.37912e-01
       H -4.09557e+00  1.34058e+00  6.35524e-01
4
# CELL(abcABC): 1000.00000  1000.00000  1000.00000    90.00000    90.00000    90.00000  Step:          77  Bead:       0 positions{angstrom}  cell{angstrom}
       O -3.14882e+00  1.06202e+00  3.64253e-01
       H -2.86660e+00  1.47790e-01  1.29095e-01
       H -2.43146e+00  1.71622e+00  1.31507e-01
       H -4.10558e+00  1.34875e+00  6.43106e-01
4
# CELL(abcABC): 1000.00000  1000.00000  1000.00000    90.00000    90.00000    90.00000  Step:          78  Bead:       0 positions{angstrom}  cell{angstrom}
       O -3.14734e+00  1.06106e+00  3.64843e-01
       H -2.87331e+00  1.40280e-01  1.19990e-01
       H -2.44049e+00  1.73188e+00  1.25900e-01
       H -4.11333e+00  1.35576e+00  6.48443e-01
4
# CELL(abcABC): 1000.00000  1000.00000  1000.00000    90.00000    90.00000    90.00000  Step:          79  Bead:       0 positions{angstrom}  cell{angstrom}
       O -3.14594e+00  1.06033e+00  3.65345e-01
       H -2.88110e+00  1.35571e-01  1.12923e-01
       H -2.45058e+00  1.74371e+00  1.21183e-01
       H -4.11760e+00  1.36023e+00  6.52259e-01
4
# CELL(abcABC): 1000.00000  1000.00000  1000.00000    90.00000    90.00000    90.00000  Step:          80  Bead:       0 positions{angstrom}  cell{angstrom}
       O -3.14470e+00  1.05976e+00  3.65687e-01
       H -2.88885e+00  1.33811e-01  1.06679e-01
       H -2.46240e+00  1.75191e+00  1.18581e-01
       H -4.11783e+00  1.36286e+00  6.55683e-01
4
# CELL(abcABC): 1000.00000  1000.00000  1000.00000    90.00000    90.00000    90.00000  Step:          81  Bead:       0 positions{angstrom}  cell{angstrom}
       O -3.14361e+00  1.05920e+00  3.66048e-01
       H -2.89467e+00  1.35730e-01  1.00612e-01
       H -2.47651e+00  1.75856e+00  1.17128e-01
       H -4.11511e+00  1.36323e+00  6.57481e-01
4
# CELL(abcABC): 1000.00000  1000.00000  1000.00000    90.00000    90.00000    90.00000  Step:          82  Bead:       0 positions{angstrom}  cell{angstrom}
       O -3.14266e+00  1.05892e+00  3.66284e-01
       H -2.89981e+00  1.39739e-01  9.60150e-02
       H -2.49147e+00  1.76080e+00  1.16402e-01
       H -4.11008e+00  1.36146e+00  6.59049e-01
4
# CELL(abcABC): 1000.00000  1000.00000  1000.00000    90.00000    90.00000    90.00000  Step:          83  Bead:       0 positions{angstrom}  cell{angstrom}
       O -3.14193e+00  1.05870e+00  3.66516e-01
       H -2.90468e+00  1.46509e-01  9.24175e-02
       H -2.50694e+00  1.76076e+00  1.16198e-01
       H -4.10128e+00  1.35816e+00  6.59176e-01
4
# CELL(abcABC): 1000.00000  1000.00000  1000.00000    90.00000    90.00000    90.00000  Step:          84  Bead:       0 positions{angstrom}  cell{angstrom}
       O -3.14142e+00  1.05861e+00  3.66803e-01
       H -2.90804e+00  1.54252e-01  8.81499e-02
       H -2.52311e+00  1.75899e+00  1.16048e-01
       H -4.08991e+00  1.35370e+00  6.59034e-01
4
# CELL(abcABC): 1000.00000  1000.00000  1000.00000    90.00000    90.00000    90.00000  Step:          85  Bead:       0 positions{angstrom}  cell{angstrom}