11115
# CELL(abcABC):   47.66706    47.66706    47.66706    90.00000    90.00000    90.00000  Step:       10000  Bead:       0 positions{angstrom}  cell{angstrom}
       C  2.80821e+00  8.92714e-01  5.65275e+00
       H  2.18681e+00  1.37430e+00  4.90099e+00
       H  3.84326e+00  1.22732e+00  5.72114e+00
       H  2.39178e+00  1.07346e+00  6.70662e+00
       C  2.76327e+00 -5.64077e-01  5.33942e+00
       O  1.79051e+00 -1.22607e+00  5.63296e+00
       N  3.86701e+00 -1.03659e+00  4.75382e+00
       H  4.63711e+00 -3.80798e-01  4.58154e+00
       C  4.08164e+00 -2.45403e+00  4.30768e+00
       H  3.08918e+00 -2.74068e+00  3.98153e+00
       C  4.98408e+00 -2.51506e+00  3.11476e+00
       H  5.96600e+00 -2.20167e+00  3.36316e+00
       H  4.62589e+00 -1.80101e+00  2.41610e+00
       C  5.00147e+00 -3.76582e+00  2.29288e+00
       O  5.90004e+00 -3.97893e+00  1.44392e+00
       O  4.08734e+00 -4.62345e+00  2.50275e+00
       H  4.03793e+00 -5.31853e+00  1.74312e+00
       C  4.61911e+00 -3.38582e+00  5.46514e+00
       O  5.77366e+00 -3.72617e+00  5.56319e+00
       N  3.74672e+00 -3.74361e+00  6.41747e+00
       H  4.08932e+00 -4.20505e+00  7.24312e+00
       H  2.82997e+00 -3.39992e+00  6.31352e+00
       O -1.90148e+01 -2.08388e+01 -2.40984e+00
       H -1.81359e+01 -2.10361e+01 -2.49692e+00
       H -1.92265e+01 -2.01038e+01 -3.03846e+00
       O -2.41554e+01 -1.40787e+01 -2.65832e+01
       H -2.36713e+01 -1.35476e+01 -2.72900e+01
       H -2.50308e+01 -1.37004e+01 -2.65584e+01
       O -2.18023e+01 -7.85828e+00  4.87941e-01
       H -2.18593e+01 -8.32967e+00  1.37989e+00
       H -2.15116e+01 -6.97786e+00  7.57987e-01
       O -1.56483e+01 -3.03482e+01 -1.15350e+01
       H -1.53853e+01 -3.07827e+01 -1.23621e+01
       H -1.51979e+01 -3.10121e+01 -1.09793e+01
       O -1.64885e+01 -1.05816e+01 -1.06697e+01
       H -1.66910e+01 -9.72018e+00 -1.10866e+01
       H -1.58104e+01 -1.07828e+01 -1.12858e+01
       O -2.25819e+01 -1.97451e+01 -1.96789e+01
       H -2.28896e+01 -2.04991e+01 -2.02461e+01
       H -2.20663e+01 -2.01934e+01 -1.90172e+01
       O -2.43600e+01 -2.18723e+01 -1.76770e+01
       H -2.35032e+01 -2.15644e+01 -1.73485e+01
       H -2.47868e+01 -2.11245e+01 -1.81363e+01
       O -2.36268e+01 -1.95171e+01 -1.57663e+01
       H -2.32102e+01 -1.89945e+01 -1.64322e+01
       H -2.44309e+01 -1.90438e+01 -1.56089e+01
       O -1.21445e+01 -2.89182e+01 -2.39524e+01
       H -1.14019e+01 -2.95454e+01 -2.40816e+01
       H -1.23126e+01 -2.85577e+01 -2.48549e+01
       O -6.71876e+00 -2.99375e+01 -1.08053e+01
       H -5.87148e+00 -3.04098e+01 -1.06634e+01
       H -6.74508e+00 -2.99299e+01 -1.17588e+01
       O -1.45753e+01 -1.49756e+01 -2.14173e+01
       H -1.44001e+01 -1.52835e+01 -2.04846e+01
       H -1.55518e+01 -1.51047e+01 -2.13311e+01
       O -6.01692e+00  3.18273e+00 -6.13429e+00
       H -5.13515e+00  3.18034e+00 -5.80318e+00
       H -5.90387e+00  2.32977e+00 -6.72213e+00
       O -1.14489e+01 -1.96569e+01 -2.10632e+01
       H -1.20515e+01 -1.92231e+01 -2.17435e+01
       H -1.08073e+01 -1.89077e+01 -2.11174e+01
       O -1.90935e+01 -4.51424e+00 -1.25221e+01
       H -1.93792e+01 -5.41256e+00 -1.27603e+01
       H -1.97492e+01 -3.96481e+00 -1.29198e+01
       O -1.76462e+01 -3.15533e+01 -2.79859e+01
       H -1.76943e+01 -3.23455e+01 -2.86084e+01
       H -1.71954e+01 -3.19979e+01 -2.72343e+01
       O -6.07310e+00 -2.38911e+01 -1.64950e+01
       H -6.37026e+00 -2.43952e+01 -1.72554e+01
       H -5.46472e+00 -2.31924e+01 -1.68036e+01
       O -2.54922e+01 -2.51875e+01 -2.56567e+00
       H -2.51123e+01 -2.60244e+01 -2.74980e+00
       H -2.47386e+01 -2.46073e+01 -2.68388e+00
       O -1.33255e+01 -1.32745e+01 -2.31511e+01
       H -1.36836e+01 -1.39539e+01 -2.25493e+01
       H -1.30932e+01 -1.25777e+01 -2.24959e+01
       O -1.93896e+01 -1.46922e+01 -7.21431e-01
       H -1.97906e+01 -1.53933e+01 -1.75654e-01
       H -2.01657e+01 -1.43385e+01 -1.07131e+00
       O -1.85051e+01 -5.70349e+00 -3.03584e+01
       H -1.85572e+01 -6.32731e+00 -3.11188e+01
       H -1.93822e+01 -5.19983e+00 -3.04366e+01
       O -1.43794e+01 -3.25891e+01 -7.55864e+00
       H -1.51770e+01 -3.21539e+01 -7.61074e+00
       H -1.44419e+01 -3.34779e+01 -7.98229e+00
       O -3.38879e+01 -9.64436e+00 -2.50543e+01
       H -3.35553e+01 -1.03203e+01 -2.44383e+01
       H -3.43537e+01 -1.02172e+01 -2.56676e+01
       O -2.30226e+00 -6.64876e+00 -1.80164e+01
       H -1.30982e+00 -6.75111e+00 -1.81646e+01
       H -2.52190e+00 -6.27611e+00 -1.88716e+01
       O -2.78581e+01 -1.12002e+01 -1.18564e+01
       H -2.79356e+01 -1.09605e+01 -1.27697e+01
       H -2.74989e+01 -1.03583e+01 -1.14723e+01
       O -1.47146e+01 -3.22493e+01 -2.97829e+01
       H -1.48196e+01 -3.31932e+01 -2.94309e+01
       H -1.49675e+01 -3.22994e+01 -3.07230e+01
       O -1.83377e+01 -1.63484e+01 -1.78091e+01
       H -1.82762e+01 -1.55115e+01 -1.82523e+01
       H -1.76667e+01 -1.61619e+01 -1.70958e+01
       O -5.14818e+00  1.28611e+01 -5.89644e+00
       H -5.15318e+00  1.37351e+01 -5.50315e+00
       H -5.28907e+00  1.22978e+01 -5.15222e+00
       O -1.56256e+01  3.28726e-01 -4.35462e+00
       H -1.60231e+01 -3.97155e-01 -3.74854e+00
       H -1.59391e+01  1.19591e+00 -4.00516e+00
       O -1.43285e+01 -1.22421e+01 -8.60351e+00
       H -1.52117e+01 -1.23428e+01 -9.00385e+00
       H -1.44397e+01 -1.17557e+01 -7.77500e+00
       O -9.22277e+00 -1.91340e+01 -1.14551e+01
       H -8.80275e+00 -1.91302e+01 -1.23518e+01
       H -8.49651e+00 -1.93151e+01 -1.08607e+01
       O  7.84048e+00  1.93607e+00 -3.46336e+01
       H  8.06952e+00  1.91683e+00 -3.56100e+01
       H  8.54676e+00  2.53385e+00 -3.42196e+01
       O -5.51095e+00 -2.82102e+01 -1.39958e+01
       H -4.76411e+00 -2.81642e+01 -1.33188e+01
       H -4.92446e+00 -2.80217e+01 -1.47772e+01
       O  1.84024e+00 -2.19414e+00 -1.12141e+01
       H  1.92430e+00 -1.29002e+00 -1.08844e+01
       H  1.05652e+00 -2.23449e+00 -1.17614e+01
       O -2.75149e+01 -1.53698e+01 -7.16583e+00
       H -2.81409e+01 -1.60621e+01 -6.78417e+00
       H -2.71270e+01 -1.59955e+01 -7.76335e+00
       O -9.36370e+00 -1.77173e+01 -2.14013e+01
       H -9.47543e+00 -1.75766e+01 -2.24181e+01
       H -8.82707e+00 -1.69094e+01 -2.11016e+01
       O -1.50124e+01 -2.26357e+01 -2.59829e+01
       H -1.59189e+01 -2.29796e+01 -2.57003e+01
       H -1.48224e+01 -2.21525e+01 -2.51258e+01
       O -1.62185e+01 -1.52886e+01  3.43655e+00
       H -1.52486e+01 -1.50517e+01  3.35356e+00
       H -1.65463e+01 -1.46866e+01  2.73391e+00
       O -1.82922e+01 -3.41478e+01 -9.73673e+00
       H -1.90676e+01 -3.37762e+01 -1.01769e+01
       H -1.86248e+01 -3.49981e+01 -9.46016e+00
       O -7.75598e+00 -4.95726e+00  7.97879e+00
       H -7.29874e+00 -5.60070e+00  7.37335e+00
       H -6.95179e+00 -4.76070e+00  8.46508e+00
       O  1.62627e+00 -1.11445e+01 -3.51955e+01
       H  1.05436e+00 -1.18901e+01 -3.49312e+01
       H  1.39281e+00 -1.11805e+01 -3.61288e+01
       O -2.08592e+00 -2.66256e+01 -2.23869e+01
       H -2.47337e+00 -2.75184e+01 -2.23819e+01
       H -2.21380e+00 -2.64722e+01 -2.14286e+01
       O -2.33884e+01 -1.50102e+01 -8.20098e+00
       H -2.24623e+01 -1.53547e+01 -8.15622e+00
       H -2.37350e+01 -1.59712e+01 -8.27700e+00
       O -5.51823e+00 -1.16805e+01 -1.55919e+01
       H -6.15862e+00 -1.21347e+01 -1.50805e+01
       H -4.73059e+00 -1.16430e+01 -1.50101e+01
       O -2.18517e+01 -5.31592e+01 -2.45556e+01
       H -2.17679e+01 -5.32973e+01 -2.54961e+01
       H -2.28251e+01 -5.28943e+01 -2.44201e+01
       O -1.77463e+01 -1.86120e+01 -4.31574e+01
       H -1.74369e+01 -1.77099e+01 -4.28680e+01
       H -1.80885e+01 -1.90948e+01 -4.23762e+01
       O -8.43008e+00 -6.92356e+00 -3.34633e+01
       H -7.96587e+00 -7.61917e+00 -3.28922e+01
       H -7.66134e+00 -6.43199e+00 -3.37591e+01
       O -3.12465e+01 -1.98233e+01 -8.85668e+00
       H -3.21502e+01 -2.01221e+01 -9.13683e+00
       H -3.14995e+01 -1.92975e+01 -8.05610e+00
       O -1.30955e+01 -8.52726e+00 -1.18437e+01
       H -1.35581e+01 -7.97824e+00 -1.11847e+01
       H -1.36654e+01 -9.38759e+00 -1.17866e+01
       O -1.65237e+01 -2.08495e+01 -1.56822e+01
       H -1.68573e+01 -2.06031e+01 -1.65282e+01
       H -1.59614e+01 -2.01097e+01 -1.55158e+01
       O -1.55458e+00 -3.06636e+00  8.66049e-01
       H -2.08512e+00 -3.85470e+00  8.97823e-01
       H -6.68105e-01 -3.49963e+00  9.67251e-01
       O -1.53879e+00  3.88060e+00  3.71131e+00
       H -1.50641e+00  3.36673e+00  4.55926e+00
       H -9.41174e-01  4.66352e+00  3.75990e+00
       O -3.89468e-01 -4.31520e+00 -7.02175e+00
       H  4.22668e-02 -3.47756e+00 -7.12292e+00
       H -4.68799e-01 -4.57892e+00 -7.98092e+00
       O -1.03942e+01 -3.15828e+00 -9.69957e+00
       H -1.05534e+01 -3.03403e+00 -1.06306e+01
       H -1.04910e+01 -4.10198e+00 -9.75793e+00
       O -1.23256e+01 -3.33090e-03 -9.32127e+00
       H -1.31986e+01 -3.68189e-01 -9.12575e+00
       H -1.19162e+01  6.95902e-03 -8.44266e+00
       O -1.08471e+01 -1.90032e+01 -8.85642e+00
       H -1.04096e+01 -1.89235e+01 -9.72156e+00
       H -1.10786e+01 -1.99536e+01 -8.76392e+00
       O -1.10486e+01 -2.64952e+01 -3.01900e+01
       H -1.08199e+01 -2.69326e+01 -2.93748e+01
       H -1.01657e+01 -2.62320e+01 -3.03094e+01
       O -2.07927e+01 -2.86163e+01 -1.34379e+01
       H -1.99038e+01 -2.86548e+01 -1.30690e+01
       H -2.07879e+01 -2.93197e+01 -1.41631e+01
       O -1.68695e+01 -3.17423e+01 -8.26247e+00
       H -1.74175e+01 -3.25338e+01 -8.10716e+00
       H -1.74775e+01 -3.11069e+01 -8.64004e+00
       O  2.68467e+00  3.79752e+00 -4.85537e+00
       H  2.47578e+00  4.63646e+00 -4.35361e+00
       H  2.54450e+00  3.13377e+00 -4.18362e+00
       O -1.18069e+01 -3.14677e+01 -2.03694e+01
       H -1.26695e+01 -3.09918e+01 -2.04857e+01
       H -1.18300e+01 -3.19198e+01 -2.12367e+01
       O -2.06226e+00 -1.73787e+00 -2.73516e+01
       H -2.70934e+00 -2.27732e+00 -2.68106e+01
       H -1.35991e+00 -2.38152e+00 -2.74515e+01
       O -2.64471e+01 -2.10296e+01 -7.06713e+00
       H -2.73758e+01 -2.12489e+01 -7.28708e+00
       H -2.60746e+01 -2.12087e+01 -7.97380e+00
       O -1.46289e+01 -4.22165e+01 -2.36418e+01
       H -1.49128e+01 -4.29939e+01 -2.40753e+01
       H -1.54421e+01 -4.19084e+01 -2.33119e+01
       O -6.73147e+00 -2.20922e+01 -1.08208e+01
       H -6.75200e+00 -2.11377e+01 -1.06053e+01
       H -5.79346e+00 -2.23429e+01 -1.07271e+01
       O -1.01000e+01 -1.60817e+01 -1.25889e+01
       H -9.32986e+00 -1.66145e+01 -1.23542e+01
       H -1.06229e+01 -1.68047e+01 -1.28854e+01
       O -1.43914e+01 -3.50756e+01 -8.86553e+00
       H -1.48100e+01 -3.56708e+01 -8.22968e+00
       H -1.49874e+01 -3.51838e+01 -9.64599e+00
       O -3.46500e+01 -8.29788e+00 -1.23235e+01
       H -3.46564e+01 -7.50616e+00 -1.17070e+01
       H -3.37367e+01 -8.29856e+00 -1.25119e+01
       O -2.65236e+01 -2.17699e+01 -2.65946e+01
       H -2.68124e+01 -2.25867e+01 -2.71450e+01
       H -2.55438e+01 -2.19263e+01 -2.66716e+01
       O -2.17980e+01 -1.88884e+00 -2.53048e+01
       H -2.25445e+01 -1.84684e+00 -2.59024e+01
       H -2.20633e+01 -1.30706e+00 -2.45882e+01
       O -2.15933e+01 -1.50700e+01 -2.08756e+01
       H -2.18664e+01 -1.60684e+01 -2.08342e+01
       H -2.22531e+01 -1.47709e+01 -2.15661e+01
       O -1.96510e+01 -1.89530e+01 -8.90120e-02
       H -1.87112e+01 -1.86448e+01 -7.98664e-02
       H -1.94597e+01 -1.97560e+01 -6.77608e-01
       O -1.28349e+00 -2.13022e+01 -1.26381e+01
       H -1.67357e+00 -2.10322e+01 -1.34684e+01
       H -1.58298e+00 -2.22588e+01 -1.25185e+01
       O -2.02443e+01 -2.49481e+01 -2.71601e+01
       H -1.93749e+01 -2.53369e+01 -2.71295e+01
       H -1.99675e+01 -2.40230e+01 -2.74065e+01
       O -1.75058e+01 -2.01648e+01 -2.32810e+01
       H -1.67955e+01 -1.97008e+01 -2.37776e+01
       H -1.74918e+01 -1.97075e+01 -2.23959e+01
       O -2.60306e+01 -2.92677e+01 -2.50320e+00
       H -2.53661e+01 -2.84646e+01 -2.55302e+00
       H -2.54368e+01 -2.98603e+01 -2.95707e+00
       O -2.71643e+01 -2.86851e+01 -3.53281e+01
       H -2.70490e+01 -2.79494e+01 -3.59180e+01
       H -2.75886e+01 -2.83234e+01 -3.45201e+01
       O -2.91176e+00 -1.18570e+01  1.00560e+01
       H -2.26161e+00 -1.14264e+01  1.06608e+01
       H -3.40550e+00 -1.22403e+01  1.08125e+01
       O -3.75854e+01 -7.40513e+00 -4.74496e+00
       H -3.70182e+01 -8.13035e+00 -4.94444e+00
       H -3.72733e+01 -6.77970e+00 -5.36780e+00
       O -1.64984e+01 -2.06366e+01 -3.08491e+00
       H -1.61723e+01 -1.99364e+01 -3.63566e+00
       H -1.58566e+01 -2.06145e+01 -2.31793e+00
       O -2.39758e+01 -2.35027e+01 -2.61843e+01
       H -2.37421e+01 -2.28606e+01 -2.69609e+01
       H -2.37765e+01 -2.43752e+01 -2.66254e+01
       O -8.85921e+00 -2.57588e+01 -1.07713e+01
       H -9.52834e+00 -2.56480e+01 -1.00728e+01
       H -8.18081e+00 -2.61734e+01 -1.02025e+01
       O -1.09077e+01 -1.66178e+01 -1.53576e+01
       H -1.03224e+01 -1.73585e+01 -1.53074e+01
       H -1.02237e+01 -1.59279e+01 -1.55796e+01
       O -2.30773e+01  1.04823e+01 -1.40082e+01
       H -2.26645e+01  1.11072e+01 -1.46200e+01
       H -2.22415e+01  1.03178e+01 -1.34384e+01
       O -9.26662e+00 -3.05601e+01 -2.00101e+01
       H -1.02171e+01 -3.07610e+01 -1.99948e+01
       H -8.72529e+00 -3.13874e+01 -1.97842e+01
       O -1.42103e+01 -2.20324e+01 -3.43808e+01
       H -1.34736e+01 -2.26262e+01 -3.45351e+01
       H -1.45061e+01 -2.21997e+01 -3.34732e+01
       O -1.07313e+01 -2.93260e+01 -1.39186e+01
       H -1.00741e+01 -2.88609e+01 -1.34339e+01
       H -1.13780e+01 -2.96264e+01 -1.31992e+01
       O -1.42115e+01 -3.25886e+00 -9.91442e+00
       H -1.51073e+01 -3.28542e+00 -1.02185e+01
       H -1.37435e+01 -3.42022e+00 -1.07570e+01
       O -2.07861e+01 -2.51366e+01 -3.30579e+01
       H -1.99851e+01 -2.52417e+01 -3.25670e+01
       H -2.05658e+01 -2.56295e+01 -3.38417e+01
       O -3.83518e+01 -2.62309e+01 -1.51937e+01
       H -3.84122e+01 -2.62107e+01 -1.61508e+01
       H -3.74403e+01 -2.59484e+01 -1.49997e+01
       O -1.96343e+01 -2.07144e+01  9.01707e+00
       H -1.93806e+01 -2.12654e+01  9.74975e+00
       H -2.05014e+01 -2.11879e+01  8.83143e+00
       O -1.05705e+01 -1.03622e+01 -2.80348e+00
       H -1.05363e+01 -1.12621e+01 -3.10759e+00
       H -1.15532e+01 -1.02416e+01 -2.74413e+00
       O -1.15484e+01 -2.11387e+01 -1.35378e+01
       H -1.16616e+01 -2.18241e+01 -1.28574e+01
       H -1.09242e+01 -2.16250e+01 -1.41529e+01
       O  5.40763e+00 -8.91729e+00  1.90191e+01
       H  6.22830e+00 -9.37242e+00  1.92066e+01
       H  5.77719e+00 -8.03253e+00  1.88208e+01
       O -1.07837e+01  2.00516e+00 -1.05514e+01
       H -1.16125e+01  2.39581e+00 -1.08935e+01
       H -1.10962e+01  1.47488e+00 -9.80355e+00
       O -3.44570e-03  7.16902e+00 -2.18441e+00
       H -6.07756e-01  7.56617e+00 -2.88949e+00
       H -6.45113e-01  6.75106e+00 -1.57027e+00
       O -1.63733e+01 -9.45213e+00 -3.00499e+01
       H -1.68722e+01 -1.00495e+01 -2.95221e+01
       H -1.56157e+01 -9.32185e+00 -2.93979e+01
       O -7.40263e+00 -1.19369e+01 -2.76678e+01
       H -6.95295e+00 -1.26420e+01 -2.70642e+01
       H -6.82667e+00 -1.21487e+01 -2.84807e+01
       O -1.72606e+01 -1.07636e+01 -2.79439e+01
       H -1.72577e+01 -9.90909e+00 -2.73799e+01
       H -1.66500e+01 -1.12959e+01 -2.74164e+01
       O -1.77107e+01 -2.87002e+01 -2.82269e+01
       H -1.80023e+01 -2.86490e+01 -2.91123e+01
       H -1.76525e+01 -2.96640e+01 -2.80189e+01
       O -6.78544e+00 -2.39597e+00 -5.00951e+00
       H -6.04632e+00 -2.19546e+00 -5.63762e+00
       H -7.58155e+00 -1.83426e+00 -5.32357e+00
       O -1.90559e+01 -2.40156e+01 -6.19668e+00
       H -1.84773e+01 -2.44339e+01 -6.85556e+00
       H -1.84061e+01 -2.32929e+01 -5.95409e+00
       O -3.88711e+00 -1.87458e+00 -1.25084e+01
       H -4.65596e+00 -1.51853e+00 -1.20770e+01
       H -4.24215e+00 -2.06445e+00 -1.33978e+01
       O -7.19222e+00 -8.95714e+00 -1.02651e+01
       H -6.33947e+00 -8.69752e+00 -1.07818e+01
       H -6.99827e+00 -8.49440e+00 -9.44361e+00
       O  1.08382e+01  7.51234e+00 -3.00156e+01
       H  1.03893e+01  7.99302e+00 -3.06537e+01
       H  1.05748e+01  8.06325e+00 -2.93171e+01
       O -2.31385e+01 -1.87254e+01 -1.04632e+01
       H -2.36290e+01 -1.84712e+01 -9.65069e+00
       H -2.31069e+01 -1.96856e+01 -1.03500e+01
       O -2.18442e+01 -3.00372e+01 -1.13132e+01
       H -2.15585e+01 -2.96579e+01 -1.21552e+01
       H -2.25341e+01 -3.06613e+01 -1.15834e+01
       O -7.95414e+00 -1.70699e+01 -5.63119e+00
       H -7.00423e+00 -1.69698e+01 -5.38511e+00
       H -8.30344e+00 -1.65923e+01 -4.80670e+00
       O -7.28766e+00 -1.91975e+01 -1.91703e+01
       H -7.99233e+00 -1.97566e+01 -1.94665e+01
       H -6.72939e+00 -1.90469e+01 -2.00005e+01
       O -1.43765e+01 -8.50048e+00 -1.51640e+01
       H -1.37497e+01 -9.27342e+00 -1.54321e+01
       H -1.51558e+01 -9.08525e+00 -1.49748e+01
       O -1.68864e+01 -2.79015e+01 -2.17890e+01
       H -1.74145e+01 -2.86357e+01 -2.22023e+01
       H -1.61144e+01 -2.78570e+01 -2.23560e+01
       O -1.20580e+01 -1.35515e+01 -7.94051e+00
       H -1.14086e+01 -1.29508e+01 -7.65210e+00
       H -1.28257e+01 -1.29710e+01 -8.13355e+00
       O -1.78535e+01 -3.77049e+01 -4.18755e+01
       H -1.86727e+01 -3.75766e+01 -4.24719e+01
       H -1.77153e+01 -3.67424e+01 -4.17440e+01
       O -1.69575e+01 -1.32915e+01 -9.31209e+00
       H -1.79025e+01 -1.35132e+01 -9.21615e+00
       H -1.69289e+01 -1.28156e+01 -1.01214e+01
       O -1.20807e+01 -3.69260e+01 -2.59011e+01
       H -1.14180e+01 -3.76694e+01 -2.57153e+01
       H -1.22322e+01 -3.66111e+01 -2.49979e+01
       O -1.21992e+01 -2.15199e+01 -9.45221e+00
       H -1.29336e+01 -2.16397e+01 -1.01779e+01
       H -1.28258e+01 -2.11367e+01 -8.75193e+00
       O -2.74981e+01 -2.07188e+01 -2.39877e+01
       H -2.78609e+01 -1.99152e+01 -2.43523e+01
       H -2.69140e+01 -2.09647e+01 -2.47670e+01
       O -1.36964e+01 -1.51056e+01 -6.08168e+00
       H -1.45107e+01 -1.54472e+01 -6.48650e+00
       H -1.31384e+01 -1.48096e+01 -6.86693e+00
       O -5.71248e+00 -2.73932e+01 -3.98507e+01
       H -4.77053e+00 -2.75710e+01 -3.99947e+01
       H -5.70725e+00 -2.66277e+01 -3.92947e+01
       O -1.00809e+00 -2.40257e+01 -2.21641e+01
       H -1.12912e+00 -2.49797e+01 -2.23824e+01
       H -1.80835e+00 -2.37140e+01 -2.16534e+01
       O -1.54729e+01 -1.28666e+01 -1.56139e+01
       H -1.48234e+01 -1.27174e+01 -1.62884e+01
       H -1.56378e+01 -1.19695e+01 -1.52795e+01
       O -1.93400e+01 -8.77900e+00 -1.47015e+01
       H -1.97760e+01 -8.77500e+00 -1.38238e+01
       H -1.97746e+01 -8.01515e+00 -1.50805e+01
       O -4.50427e+00 -3.79520e+00 -1.83626e+01
       H -5.05137e+00 -3.00244e+00 -1.81744e+01
       H -3.56460e+00 -3.54250e+00 -1.80001e+01
       O -2.96114e+00 -5.43945e+00  1.20473e+00
       H -3.91643e+00 -5.51800e+00  1.56173e+00
       H -2.59706e+00 -6.33655e+00  1.36996e+00
       O -2.03715e+01 -1.65535e+01  1.06954e+00
       H -2.00623e+01 -1.67934e+01  1.96181e+00
       H -2.01690e+01 -1.74666e+01  6.86261e-01
       O -1.60864e+01 -1.53170e+01 -1.30927e+01
       H -1.52789e+01 -1.55012e+01 -1.26814e+01
       H -1.66178e+01 -1.52185e+01 -1.23176e+01
       O -2.78715e+01 -1.39481e+01 -1.15663e+01
       H -2.78889e+01 -1.30186e+01 -1.17064e+01
       H -2.69345e+01 -1.41420e+01 -1.13970e+01
       O -7.88934e+00 -9.28654e+00 -3.68754e+00
       H -7.61636e+00 -1.01903e+01 -4.09095e+00
       H -8.67287e+00 -9.51978e+00 -3.12319e+00
       O -2.48758e+01 -1.47072e+01 -4.48853e+01
       H -2.46087e+01 -1.43454e+01 -4.39946e+01
       H -2.51472e+01 -1.56166e+01 -4.45913e+01
       O -1.38006e+01 -2.34866e+01 -7.57008e+00
       H -1.28505e+01 -2.36037e+01 -7.46836e+00
       H -1.39133e+01 -2.25646e+01 -7.24132e+00
       O -4.51859e+00 -1.29909e+01 -2.12592e+01
       H -5.25073e+00 -1.24681e+01 -2.08361e+01
       H -4.88014e+00 -1.39252e+01 -2.10876e+01
       O -4.69946e+01 -1.23114e+01  6.83045e+00
       H -4.65092e+01 -1.31096e+01  7.08252e+00
       H -4.67644e+01 -1.21605e+01  5.90973e+00
       O -4.92367e+00 -1.85163e+01 -1.13708e+01
       H -4.05407e+00 -1.87741e+01 -1.09586e+01
       H -5.55614e+00 -1.90116e+01 -1.08363e+01
       O -2.04616e+01 -1.59190e+01  1.71048e+01
       H -2.07586e+01 -1.66620e+01  1.64874e+01
       H -2.01598e+01 -1.52375e+01  1.65117e+01
       O -7.74814e+00 -3.39547e+01 -3.28369e+01
       H -6.96525e+00 -3.36401e+01 -3.33462e+01
       H -7.48949e+00 -3.48796e+01 -3.26086e+01
       O -1.77806e+01 -2.06437e+01 -8.31595e+00
       H -1.74974e+01 -2.07209e+01 -9.26145e+00
       H -1.73236e+01 -1.98394e+01 -8.09515e+00
       O -1.31575e+01 -1.48056e+01  1.31808e+01
       H -1.33650e+01 -1.50195e+01  1.40997e+01
       H -1.34269e+01 -1.37864e+01  1.31952e+01
       O -1.49086e+01 -1.02537e+01 -5.61667e+00
       H -1.43565e+01 -1.10068e+01 -5.74389e+00
       H -1.56025e+01 -1.04320e+01 -6.36961e+00
       O -2.97204e+01 -1.17462e+01 -9.33618e-01
       H -2.95546e+01 -1.10124e+01 -1.61703e+00
       H -2.87848e+01 -1.20504e+01 -9.16080e-01
       O -1.25717e+01 -2.39893e+01 -2.62804e+01
       H -1.24873e+01 -2.49343e+01 -2.59934e+01
       H -1.34989e+01 -2.36156e+01 -2.59957e+01
       O -1.38925e+01 -6.41067e+00  5.70015e+00
       H -1.35361e+01 -7.30145e+00  5.47895e+00
       H -1.33405e+01 -5.97768e+00  5.02982e+00
       O -1.33327e+01 -3.09668e+01 -3.86851e+00
       H -1.41164e+01 -3.11300e+01 -4.41228e+00
       H -1.33424e+01 -2.99617e+01 -3.73127e+00
       O -9.70166e+00 -3.51438e+01 -7.56081e+00
       H -1.05742e+01 -3.49863e+01 -7.92780e+00
       H -9.18507e+00 -3.54924e+01 -8.38229e+00
       O -4.66393e+00 -9.19453e+00 -1.87365e-01
       H -4.43918e+00 -9.49952e+00  7.09934e-01
       H -3.91183e+00 -8.63509e+00 -4.75547e-01
       O -2.22783e+01 -2.57345e+01 -2.08003e+00
       H -2.13356e+01 -2.56900e+01 -1.83400e+00
       H -2.26469e+01 -2.51854e+01 -1.36293e+00
       O  3.32958e+00  1.45551e+00  2.29569e+00
       H  2.42940e+00  1.78751e+00  2.39075e+00
       H  3.88846e+00  2.23997e+00  2.22885e+00
       O -1.54314e+01 -2.85288e+01 -8.43035e+00
       H -1.48733e+01 -2.93173e+01 -8.32288e+00
       H -1.48256e+01 -2.77520e+01 -8.10888e+00
       O -2.06468e+01 -2.25169e+01 -8.40784e+00
       H -2.11393e+01 -2.29957e+01 -7.71863e+00
       H -1.97185e+01 -2.28218e+01 -8.26741e+00
       O -2.38029e+01 -1.85341e+01 -1.30057e+01
       H -2.29539e+01 -1.85021e+01 -1.35325e+01
       H -2.33873e+01 -1.86222e+01 -1.21118e+01
       O -4.60960e+00 -5.65136e+00 -3.49545e+00
       H -4.11068e+00 -5.47602e+00 -2.67181e+00
       H -3.90126e+00 -5.34703e+00 -4.09858e+00
       O -2.70857e+00 -1.35970e+01 -1.47554e+01
       H -1.90084e+00 -1.37413e+01 -1.52878e+01
       H -3.03428e+00 -1.44255e+01 -1.46290e+01
       O -1.96720e+01 -2.54031e+01 -1.41593e+01
       H -1.88461e+01 -2.56129e+01 -1.45777e+01
       H -2.02521e+01 -2.54023e+01 -1.49295e+01
       O -1.77324e+00 -1.39985e+01 -6.46810e+00
       H -1.30176e+00 -1.38492e+01 -5.57226e+00
       H -2.56476e+00 -1.34242e+01 -6.50869e+00
       O -1.14628e+01 -2.34360e+01 -1.20041e+01
       H -1.20200e+01 -2.37977e+01 -1.26392e+01
       H -1.17640e+01 -2.39544e+01 -1.11913e+01
       O -7.08708e+00 -1.33998e+01 -2.36883e+01
       H -6.55507e+00 -1.41964e+01 -2.35211e+01
       H -8.01056e+00 -1.37591e+01 -2.35757e+01
       O -1.95876e+01 -6.18919e-01 -3.44605e+00
       H -2.03344e+01 -1.05078e+00 -3.04228e+00
       H -1.98811e+01  2.54473e-01 -3.00982e+00
       O -7.47793e+00 -3.46761e+00 -1.22698e+01
       H -6.89805e+00 -2.96022e+00 -1.16490e+01
       H -8.00529e+00 -2.73429e+00 -1.25664e+01
       O -2.09103e+01  2.08037e+00 -1.00958e+01
       H -2.15273e+01  2.79433e+00 -9.84557e+00
       H -2.12480e+01  1.28239e+00 -9.57856e+00
       O -8.68799e+00 -1.45602e+00 -1.77464e+01
       H -9.07839e+00 -1.06783e+00 -1.85894e+01
       H -8.71304e+00 -6.20095e-01 -1.71832e+01
       O -2.18466e+01 -7.40087e+00 -2.45290e+00
       H -2.20215e+01 -7.96838e+00 -1.69034e+00
       H -2.09104e+01 -7.08411e+00 -2.36096e+00
       O -1.66958e+01 -2.40428e+01  4.72169e-01
       H -1.74248e+01 -2.36399e+01  1.03717e+00
       H -1.61309e+01 -2.43570e+01  1.22118e+00
       O -1.33411e+00 -7.40534e-01 -4.85113e-01
       H -1.41780e+00 -4.45594e-02  2.26080e-01
       H -1.37371e+00 -1.54400e+00  6.19085e-02
       O -2.48542e+01 -1.73956e+01 -8.61295e+00
       H -2.55504e+01 -1.77477e+01 -9.17057e+00
       H -2.52881e+01 -1.75527e+01 -7.71018e+00
       O -1.76664e+00 -2.04272e+01 -3.15646e+01
       H -9.62951e-01 -2.07850e+01 -3.11691e+01
       H -1.44007e+00 -1.94994e+01 -3.14614e+01
       O -3.62359e-01 -1.34917e+01 -1.60331e+01
       H -1.46755e-01 -1.31107e+01 -1.69135e+01
       H  4.06967e-01 -1.33575e+01 -1.54965e+01
       O -7.52507e+00 -1.87417e+01  3.72282e+00
       H -7.58033e+00 -1.93880e+01  3.08560e+00
       H -6.79523e+00 -1.90903e+01  4.25610e+00
       O -2.89821e+01 -1.48995e+01 -1.40778e+01
       H -2.86675e+01 -1.45823e+01 -1.32672e+01
       H -2.81228e+01 -1.51632e+01 -1.44590e+01
       O -1.22400e+01 -1.10941e+01 -2.18942e+01
       H -1.13568e+01 -1.09792e+01 -2.23841e+01
       H -1.26581e+01 -1.02030e+01 -2.21256e+01
       O -2.05092e+01 -1.61912e+01 -1.26695e+01
       H -2.06255e+01 -1.59430e+01 -1.35901e+01
       H -2.07882e+01 -1.71093e+01 -1.28276e+01
       O -1.21647e+01 -2.27582e+01 -1.63841e+01
       H -1.30664e+01 -2.28862e+01 -1.61104e+01
       H -1.16439e+01 -2.34671e+01 -1.59608e+01
       O -2.04107e+01  5.64706e+00 -1.72089e+01
       H -2.11207e+01  6.17139e+00 -1.67447e+01
       H -2.04641e+01  4.82034e+00 -1.66259e+01
       O  6.81278e-01 -2.01624e+01 -1.68071e+01
       H -1.51839e-01 -2.00785e+01 -1.62790e+01
       H  5.42966e-01 -1.93923e+01 -1.73739e+01
       O -8.28717e+00 -3.21029e+01 -9.40474e+00
       H -8.44413e+00 -3.27492e+01 -1.01006e+01
       H -8.16023e+00 -3.12933e+01 -9.90479e+00
       O -1.92475e+01 -1.57469e+01  3.45241e+00
       H -1.90568e+01 -1.54960e+01  4.36770e+00
       H -1.84184e+01 -1.53864e+01  3.05874e+00
       O -1.38042e+01 -2.41977e+01 -1.32405e+01
       H -1.44137e+01 -2.38843e+01 -1.39270e+01
       H -1.37091e+01 -2.51255e+01 -1.35357e+01
       O -6.68388e+00 -1.91249e+01 -2.38896e+01
       H -6.32270e+00 -1.93145e+01 -2.47279e+01
       H -7.22639e+00 -1.99519e+01 -2.38351e+01
       O -3.36816e+01 -2.79292e+01 -2.43827e+01
       H -3.31174e+01 -2.81215e+01 -2.35949e+01
       H -3.43098e+01 -2.86364e+01 -2.43254e+01
       O -3.75459e+01 -1.78507e+01 -1.09681e+01
       H -3.73762e+01 -1.69303e+01 -1.11484e+01
       H -3.67448e+01 -1.82434e+01 -1.14805e+01
       O  2.20247e-01 -8.26383e+00  1.86488e+00
       H  1.02625e+00 -7.77681e+00  2.21888e+00
       H  6.62151e-01 -8.50012e+00  1.01081e+00
       O -1.12716e+01 -1.88322e+01 -4.02269e+01
       H -1.20699e+01 -1.86695e+01 -4.07067e+01
       H -1.13274e+01 -1.97939e+01 -4.02524e+01
       O -1.41251e+01 -2.63110e+01 -2.59197e+01
       H -1.38251e+01 -2.71634e+01 -2.63777e+01
       H -1.45126e+01 -2.57404e+01 -2.66703e+01
       O -3.51691e+00 -1.41473e+01  2.12865e+00
       H -3.55854e+00 -1.37895e+01  3.03527e+00
       H -3.79375e+00 -1.50784e+01  2.32623e+00
       O -3.86807e+01 -1.07165e+01 -8.73941e+00
       H -3.77396e+01 -1.09508e+01 -8.50621e+00
       H -3.90377e+01 -1.06276e+01 -7.84707e+00
       O -2.24054e+01 -1.34412e+01 -4.56362e+00
       H -2.21482e+01 -1.42332e+01 -5.10727e+00
       H -2.33467e+01 -1.35025e+01 -4.67332e+00
       O -2.99924e+01  7.82923e+00 -1.35004e+01
       H -2.99911e+01  7.86457e+00 -1.25299e+01
       H -3.08128e+01  7.39577e+00 -1.36621e+01
       O  2.65585e+00 -2.27660e+00  3.88572e-01
       H  3.14521e+00 -1.48065e+00  6.95112e-02
       H  2.03111e+00 -1.73227e+00  8.29403e-01
       O -3.43096e+00 -1.35491e+00  2.31414e+00
       H -2.74830e+00 -1.94746e+00  1.98537e+00
       H -3.27200e+00 -1.54142e+00  3.24192e+00
       O -1.18140e+01 -1.87016e+01 -1.24026e+01
       H -1.09710e+01 -1.86724e+01 -1.18982e+01
       H -1.18108e+01 -1.95739e+01 -1.27847e+01
       O -4.28111e+01 -2.00761e+01  4.60268e+00
       H -4.23821e+01 -2.06887e+01  3.96398e+00
       H -4.34107e+01 -2.07308e+01  5.01560e+00
       O -2.21637e+01  3.86806e+00 -2.30496e+01
       H -2.26314e+01  4.48746e+00 -2.24264e+01
       H -2.21230e+01  3.11073e+00 -2.24361e+01
       O -1.93377e+01 -1.39716e+01 -2.00370e+01
       H -1.97287e+01 -1.35872e+01 -1.92226e+01
       H -2.00681e+01 -1.46067e+01 -2.02218e+01
       O -1.05549e+01 -1.51289e+01  1.54160e+00
       H -9.57640e+00 -1.51705e+01  1.64061e+00
       H -1.07427e+01 -1.60690e+01  1.73777e+00
       O -1.34537e+01 -8.67913e+00 -2.20766e+01
       H -1.35872e+01 -8.83804e+00 -2.11322e+01
       H -1.43407e+01 -8.61298e+00 -2.24491e+01
       O -1.20217e+01 -7.94118e+00 -8.71050e+00
       H -1.22054e+01 -7.78243e+00 -7.71391e+00
       H -1.11031e+01 -8.25704e+00 -8.73277e+00
       O -1.52699e+01 -1.77370e+01 -3.60662e+00
       H -1.45317e+01 -1.70941e+01 -3.43712e+00
       H -1.59524e+01 -1.73869e+01 -2.95475e+00
       O -2.70162e+01 -5.80512e-01 -1.79355e+01
       H -2.67248e+01 -1.38918e+00 -1.75276e+01
       H -2.74396e+01 -9.22755e-02 -1.71911e+01
       O -2.90998e+01 -2.87769e+01 -8.68963e+00
       H -2.98941e+01 -2.86496e+01 -9.21652e+00
       H -2.86519e+01 -2.94216e+01 -9.29121e+00
       O -1.71334e+01 -2.69353e+01 -1.44238e+01
       H -1.62023e+01 -2.66024e+01 -1.41333e+01
       H -1.72580e+01 -2.62830e+01 -1.51011e+01
       O -7.80495e+00 -1.87530e+01 -3.47126e+01
       H -7.56228e+00 -1.78429e+01 -3.46779e+01
       H -8.36524e+00 -1.89472e+01 -3.54433e+01
       O -1.33686e+01 -1.38523e+01 -1.41653e+01
       H -1.33839e+01 -1.36614e+01 -1.31827e+01
       H -1.42360e+01 -1.37120e+01 -1.45627e+01
       O -2.06836e+01 -2.31078e+01 -3.01969e+01
       H -2.03818e+01 -2.27569e+01 -2.93673e+01