4
# CELL(abcABC): 1000.00000  1000.00000  1000.00000    90.00000    90.00000    90.00000  Step:         649  Bead:       0 positions{angstrom}  cell{angstrom}
       O -3.15475e+00  1.06050e+00  3.43644e-01
       H -4.01539e+00  8.03019e-01  5.44943e-01
       H -2.39495e+00  4.59968e-01  4.98846e-01
       H -2.89914e+00  1.97419e+00  1.87098e-01
