4
# CELL(abcABC): 1000.00000  1000.00000  1000.00000    90.00000    90.00000    90.00000  Step:           0  Bead:       0 positions{angstrom}  cell{angstrom}
       O -3.14800e+00  1.06980e+00  3.41729e-01
       H -3.35478e+00  2.51092e-01  7.32603e-01
       H -2.70689e+00  1.55883e+00  1.01795e+00
       H -3.35489e+00  1.27920e+00 -4.89299e-01
4
# CELL(abcABC): 1000.00000  1000.00000  1000.00000    90.00000    90.00000    90.00000  Step:           1  Bead:       0 positions{angstrom}  cell{angstrom}
       O -3.14632e+00  1.07013e+00  3.41136e-01
       H -3.36510e+00  2.42055e-01  7.37684e-01
       H -2.70600e+00  1.55902e+00  1.01978e+00
       H -3.37215e+00  1.28280e+00 -4.86803e-01
4
# CELL(abcABC): 1000.00000  1000.00000  1000.00000    90.00000    90.00000    90.00000  Step:           2  Bead:       0 positions{angstrom}  cell{angstrom}
       O -3.14476e+00  1.07042e+00  3.40498e-01
       H -3.37631e+00  2.31406e-01  7.44129e-01
       H -2.70209e+00  1.56081e+00  1.02289e+00
       H -3.38963e+00  1.28710e+00 -4.86228e-01
4
# CELL(abcABC): 1000.00000  1000.00000  1000.00000    90.00000    90.00000    90.00000  Step:           3  Bead:       0 positions{angstrom}  cell{angstrom}
       O -3.14321e+00  1.07062e+00  3.39824e-01
       H -3.38712e+00  2.19689e-01  7.52388e-01
       H -2.69733e+00  1.56498e+00  1.02755e+00
       H -3.40812e+00  1.29136e+00 -4.88451e-01
4
# CELL(abcABC): 1000.00000  1000.00000  1000.00000    90.00000    90.00000    90.00000  Step:           4  Bead:       0 positions{angstrom}  cell{angstrom}
       O -3.14176e+00  1.07069e+00  3.39361e-01
       H -3.39767e+00  2.08718e-01  7.58779e-01
       H -2.69127e+00  1.57062e+00  1.03210e+00
       H -3.42671e+00  1.29563e+00 -4.92032e-01
4
# CELL(abcABC): 1000.00000  1000.00000  1000.00000    90.00000    90.00000    90.00000  Step:           5  Bead:       0 positions{angstrom}  cell{angstrom}
       O -3.14029e+00  1.07041e+00  3.39147e-01
       H -3.40794e+00  2.01149e-01  7.63503e-01
       H -2.68569e+00  1.57766e+00  1.03733e+00
       H -3.44539e+00  1.30059e+00 -4.98585e-01
4
# CELL(abcABC): 1000.00000  1000.00000  1000.00000    90.00000    90.00000    90.00000  Step:           6  Bead:       0 positions{angstrom}  cell{angstrom}
       O -3.13878e+00  1.06997e+00  3.39236e-01
       H -3.41666e+00  1.98152e-01  7.65503e-01
       H -2.68113e+00  1.58267e+00  1.04055e+00
       H -3.46509e+00  1.30563e+00 -5.05233e-01
4
# CELL(abcABC): 1000.00000  1000.00000  1000.00000    90.00000    90.00000    90.00000  Step:           7  Bead:       0 positions{angstrom}  cell{angstrom}
       O -3.13741e+00  1.06919e+00  3.39420e-01
       H -3.42212e+00  1.99874e-01  7.66882e-01
       H -2.67746e+00  1.58636e+00  1.04317e+00
       H -3.48503e+00  1.31250e+00 -5.12147e-01
4
# CELL(abcABC): 1000.00000  1000.00000  1000.00000    90.00000    90.00000    90.00000  Step:           8  Bead:       0 positions{angstrom}  cell{angstrom}
       O -3.13622e+00  1.06823e+00  3.39940e-01
       H -3.42463e+00  2.06245e-01  7.65766e-01
       H -2.67373e+00  1.58771e+00  1.04344e+00
       H -3.50515e+00  1.32002e+00 -5.19549e-01
4
# CELL(abcABC): 1000.00000  1000.00000  1000.00000    90.00000    90.00000    90.00000  Step:           9  Bead:       0 positions{angstrom}  cell{angstrom}
       O -3.13517e+00  1.06722e+00  3.40577e-01
       H -3.42509e+00  2.15819e-01  7.64239e-01
       H -2.66993e+00  1.58746e+00  1.04252e+00
       H -3.52514e+00  1.32680e+00 -5.27229e-01
4
# CELL(abcABC): 1000.00000  1000.00000  1000.00000    90.00000    90.00000    90.00000  Step:          10  Bead:       0 positions{angstrom}  cell{angstrom}
       O -3.13422e+00  1.06607e+00  3.41534e-01
       H -3.42352e+00  2.28487e-01  7.60855e-01
       H -2.66691e+00  1.58595e+00  1.03913e+00
       H -3.54480e+00  1.33393e+00 -5.35625e-01
4
# CELL(abcABC): 1000.00000  1000.00000  1000.00000    90.00000    90.00000    90.00000  Step:          11  Bead:       0 positions{angstrom}  cell{angstrom}
       O -3.13337e+00  1.06495e+00  3.42756e-01
       H -3.42005e+00  2.43637e-01  7.55732e-01
       H -2.66595e+00  1.58223e+00  1.03377e+00
       H -3.56281e+00  1.34030e+00 -5.44560e-01
4
# CELL(abcABC): 1000.00000  1000.00000  1000.00000    90.00000    90.00000    90.00000  Step:          12  Bead:       0 positions{angstrom}  cell{angstrom}
       O -3.13275e+00  1.06401e+00  3.44078e-01
       H -3.41410e+00  2.58567e-01  7.50761e-01
       H -2.66555e+00  1.57560e+00  1.02636e+00
       H -3.57900e+00  1.34681e+00 -5.53146e-01
4
# CELL(abcABC): 1000.00000  1000.00000  1000.00000    90.00000    90.00000    90.00000  Step:          13  Bead:       0 positions{angstrom}  cell{angstrom}
       O -3.13231e+00  1.06333e+00  3.45278e-01
       H -3.40753e+00  2.71972e-01  7.47572e-01
       H -2.66381e+00  1.56766e+00  1.01864e+00
       H -3.59429e+00  1.35214e+00 -5.61283e-01
4
# CELL(abcABC): 1000.00000  1000.00000  1000.00000    90.00000    90.00000    90.00000  Step:          14  Bead:       0 positions{angstrom}  cell{angstrom}
       O -3.13205e+00  1.06297e+00  3.46208e-01
       H -3.39974e+00  2.80954e-01  7.47415e-01
       H -2.66092e+00  1.55978e+00  1.01139e+00
       H -3.60901e+00  1.35685e+00 -5.68639e-01
4
# CELL(abcABC): 1000.00000  1000.00000  1000.00000    90.00000    90.00000    90.00000  Step:          15  Bead:       0 positions{angstrom}  cell{angstrom}
       O -3.13186e+00  1.06288e+00  3.46578e-01
       H -3.39461e+00  2.83793e-01  7.52839e-01
       H -2.65745e+00  1.55256e+00  1.00558e+00
       H -3.62063e+00  1.36265e+00 -5.74141e-01
4
# CELL(abcABC): 1000.00000  1000.00000  1000.00000    90.00000    90.00000    90.00000  Step:          16  Bead:       0 positions{angstrom}  cell{angstrom}
       O -3.13187e+00  1.06308e+00  3.46548e-01
       H -3.38928e+00  2.80401e-01  7.61496e-01
       H -2.65252e+00  1.54717e+00  1.00167e+00
       H -3.63077e+00  1.36828e+00 -5.78416e-01
4
# CELL(abcABC): 1000.00000  1000.00000  1000.00000    90.00000    90.00000    90.00000  Step:          17  Bead:       0 positions{angstrom}  cell{angstrom}
       O -3.13197e+00  1.06355e+00  3.46117e-01
       H -3.38388e+00  2.72421e-01  7.73517e-01
       H -2.64677e+00  1.54359e+00  9.98911e-01
       H -3.64041e+00  1.37233e+00 -5.80827e-01
4
# CELL(abcABC): 1000.00000  1000.00000  1000.00000    90.00000    90.00000    90.00000  Step:          18  Bead:       0 positions{angstrom}  cell{angstrom}
       O -3.13223e+00  1.06410e+00  3.45340e-01
       H -3.37968e+00  2.61801e-01  7.87980e-01
       H -2.63802e+00  1.54138e+00  9.98176e-01
       H -3.64919e+00  1.37646e+00 -5.82217e-01
4
# CELL(abcABC): 1000.00000  1000.00000  1000.00000    90.00000    90.00000    90.00000  Step:          19  Bead:       0 positions{angstrom}  cell{angstrom}
       O -3.13280e+00  1.06474e+00  3.44300e-01
       H -3.37470e+00  2.49527e-01  8.04042e-01
       H -2.62837e+00  1.53981e+00  9.98476e-01
       H -3.65473e+00  1.38007e+00 -5.82079e-01
4
# CELL(abcABC): 1000.00000  1000.00000  1000.00000    90.00000    90.00000    90.00000  Step:          20  Bead:       0 positions{angstrom}  cell{angstrom}
       O -3.13360e+00  1.06538e+00  3.43195e-01
       H -3.36873e+00  2.38123e-01  8.18619e-01
       H -2.61834e+00  1.53929e+00  1.00014e+00
       H -3.65810e+00  1.38193e+00 -5.80773e-01
4
# CELL(abcABC): 1000.00000  1000.00000  1000.00000    90.00000    90.00000    90.00000  Step:          21  Bead:       0 positions{angstrom}  cell{angstrom}
       O -3.13469e+00  1.06588e+00  3.42164e-01
       H -3.36193e+00  2.28191e-01  8.30854e-01
       H -2.60584e+00  1.53989e+00  1.00313e+00
       H -3.66004e+00  1.38321e+00 -5.79643e-01
4
# CELL(abcABC): 1000.00000  1000.00000  1000.00000    90.00000    90.00000    90.00000  Step:          22  Bead:       0 positions{angstrom}  cell{angstrom}
       O -3.13605e+00  1.06615e+00  3.41358e-01
       H -3.35482e+00  2.20511e-01  8.42029e-01
       H -2.59094e+00  1.54077e+00  1.00397e+00
       H -3.66052e+00  1.38580e+00 -5.78844e-01
4
# CELL(abcABC): 1000.00000  1000.00000  1000.00000    90.00000    90.00000    90.00000  Step:          23  Bead:       0 positions{angstrom}  cell{angstrom}
       O -3.13760e+00  1.06622e+00  3.40973e-01
       H -3.34606e+00  2.17329e-01  8.50025e-01
       H -2.57544e+00  1.54163e+00  1.00374e+00
       H -3.66011e+00  1.38700e+00 -5.80503e-01
4
# CELL(abcABC): 1000.00000  1000.00000  1000.00000    90.00000    90.00000    90.00000  Step:          24  Bead:       0 positions{angstrom}  cell{angstrom}
       O -3.13929e+00  1.06601e+00  3.40902e-01
       H -3.33534e+00  2.17451e-01  8.55029e-01
       H -2.56045e+00  1.54257e+00  1.00154e+00
       H -3.65896e+00  1.38919e+00 -5.82183e-01
4
# CELL(abcABC): 1000.00000  1000.00000  1000.00000    90.00000    90.00000    90.00000  Step:          25  Bead:       0 positions{angstrom}  cell{angstrom}
       O -3.14100e+00  1.06575e+00  3.41084e-01
       H -3.32349e+00  2.20808e-01  8.57897e-01
       H -2.54726e+00  1.54145e+00  9.96712e-01
       H -3.65692e+00  1.39118e+00 -5.83120e-01
4
# CELL(abcABC): 1000.00000  1000.00000  1000.00000    90.00000    90.00000    90.00000  Step:          26  Bead:       0 positions{angstrom}  cell{angstrom}
       O -3.14269e+00  1.06546e+00  3.41588e-01
       H -3.31075e+00  2.27331e-01  8.57288e-01
       H -2.53558e+00  1.53844e+00  9.88570e-01
       H -3.65445e+00  1.39229e+00 -5.82374e-01
4
# CELL(abcABC): 1000.00000  1000.00000  1000.00000    90.00000    90.00000    90.00000  Step:          27  Bead:       0 positions{angstrom}  cell{angstrom}
       O -3.14445e+00  1.06509e+00  3.42437e-01
       H -3.29765e+00  2.37829e-01  8.53651e-01
       H -2.52588e+00  1.53295e+00  9.76929e-01
       H -3.64946e+00  1.39303e+00 -5.80568e-01
4
# CELL(abcABC): 1000.00000  1000.00000  1000.00000    90.00000    90.00000    90.00000  Step:          28  Bead:       0 positions{angstrom}  cell{angstrom}
       O -3.14607e+00  1.06475e+00  3.43478e-01
       H -3.28552e+00  2.48507e-01  8.48209e-01
       H -2.51752e+00  1.52619e+00  9.62603e-01
       H -3.64416e+00  1.39458e+00 -5.77315e-01
4
# CELL(abcABC): 1000.00000  1000.00000  1000.00000    90.00000    90.00000    90.00000  Step:          29  Bead:       0 positions{angstrom}  cell{angstrom}
       O -3.14763e+00  1.06445e+00  3.44701e-01
       H -3.27305e+00  2.59688e-01  8.40536e-01
       H -2.51181e+00  1.51835e+00  9.45761e-01
       H -3.63752e+00  1.39606e+00 -5.72226e-01
4
# CELL(abcABC): 1000.00000  1000.00000  1000.00000    90.00000    90.00000    90.00000  Step:          30  Bead:       0 positions{angstrom}  cell{angstrom}
       O -3.14911e+00  1.06419e+00  3.45944e-01
       H -3.26097e+00  2.70209e-01  8.33856e-01
       H -2.50753e+00  1.51004e+00  9.27485e-01
       H -3.63037e+00  1.39797e+00 -5.66995e-01
4
# CELL(abcABC): 1000.00000  1000.00000  1000.00000    90.00000    90.00000    90.00000  Step:          31  Bead:       0 positions{angstrom}  cell{angstrom}
       O -3.15066e+00  1.06403e+00  3.47178e-01
       H -3.24853e+00  2.77346e-01  8.28677e-01
       H -2.50313e+00  1.50317e+00  9.07527e-01
       H -3.62267e+00  1.40024e+00 -5.61452e-01
4
# CELL(abcABC): 1000.00000  1000.00000  1000.00000    90.00000    90.00000    90.00000  Step:          32  Bead:       0 positions{angstrom}  cell{angstrom}
       O -3.15214e+00  1.06422e+00  3.48056e-01
       H -3.23849e+00  2.77521e-01  8.26307e-01
       H -2.49787e+00  1.49868e+00  8.88568e-01
       H -3.61446e+00  1.40151e+00 -5.54051e-01
4
# CELL(abcABC): 1000.00000  1000.00000  1000.00000    90.00000    90.00000    90.00000  Step:          33  Bead:       0 positions{angstrom}  cell{angstrom}
       O -3.15360e+00  1.06479e+00  3.48589e-01
       H -3.23060e+00  2.71468e-01  8.27601e-01
       H -2.49124e+00  1.49491e+00  8.70586e-01
       H -3.60588e+00  1.40222e+00 -5.45826e-01
4
# CELL(abcABC): 1000.00000  1000.00000  1000.00000    90.00000    90.00000    90.00000  Step:          34  Bead:       0 positions{angstrom}  cell{angstrom}
       O -3.15494e+00  1.06559e+00  3.48984e-01
       H -3.22382e+00  2.60400e-01  8.30712e-01
       H -2.48487e+00  1.49278e+00  8.53968e-01
       H -3.59776e+00  1.40280e+00 -5.38581e-01
4
# CELL(abcABC): 1000.00000  1000.00000  1000.00000    90.00000    90.00000    90.00000  Step:          35  Bead:       0 positions{angstrom}  cell{angstrom}
       O -3.15635e+00  1.06642e+00  3.49182e-01
       H -3.21676e+00  2.45900e-01  8.34169e-01
       H -2.47775e+00  1.49404e+00  8.39477e-01
       H -3.58943e+00  1.40280e+00 -5.30691e-01
4
# CELL(abcABC): 1000.00000  1000.00000  1000.00000    90.00000    90.00000    90.00000  Step:          36  Bead:       0 positions{angstrom}  cell{angstrom}
       O -3.15786e+00  1.06713e+00  3.49266e-01
       H -3.21067e+00  2.29881e-01  8.37153e-01
       H -2.46846e+00  1.49909e+00  8.25735e-01
       H -3.58094e+00  1.40260e+00 -5.21264e-01
4
# CELL(abcABC): 1000.00000  1000.00000  1000.00000    90.00000    90.00000    90.00000  Step:          37  Bead:       0 positions{angstrom}  cell{angstrom}
       O -3.15946e+00  1.06774e+00  3.49182e-01
       H -3.20498e+00  2.14977e-01  8.40986e-01
       H -2.45698e+00  1.50574e+00  8.12905e-01
       H -3.57270e+00  1.40114e+00 -5.10946e-01
4
# CELL(abcABC): 1000.00000  1000.00000  1000.00000    90.00000    90.00000    90.00000  Step:          38  Bead:       0 positions{angstrom}  cell{angstrom}
       O -3.16090e+00  1.06813e+00  3.49286e-01
       H -3.20117e+00  2.01772e-01  8.41931e-01
       H -2.44439e+00  1.51290e+00  8.00788e-01
       H -3.56625e+00  1.40092e+00 -5.01428e-01
4
# CELL(abcABC): 1000.00000  1000.00000  1000.00000    90.00000    90.00000    90.00000  Step:          39  Bead:       0 positions{angstrom}  cell{angstrom}
       O -3.16245e+00  1.06840e+00  3.49373e-01
       H -3.19737e+00  1.91097e-01  8.41173e-01
       H -2.43110e+00  1.51980e+00  7.90136e-01
       H -3.55872e+00  1.40042e+00 -4.91384e-01
4
# CELL(abcABC): 1000.00000  1000.00000  1000.00000    90.00000    90.00000    90.00000  Step:          40  Bead:       0 positions{angstrom}  cell{angstrom}
       O -3.16393e+00  1.06837e+00  3.49409e-01
       H -3.19422e+00  1.84528e-01  8.38859e-01
       H -2.41816e+00  1.52698e+00  7.81242e-01
       H -3.55132e+00  1.40034e+00 -4.80749e-01
4
# CELL(abcABC): 1000.00000  1000.00000  1000.00000    90.00000    90.00000    90.00000  Step:          41  Bead:       0 positions{angstrom}  cell{angstrom}
       O -3.16522e+00  1.06807e+00  3.49560e-01
       H -3.19201e+00  1.83062e-01  8.33524e-01
       H -2.40619e+00  1.53392e+00  7.72377e-01
       H -3.54498e+00  1.39963e+00 -4.68951e-01
4
# CELL(abcABC): 1000.00000  1000.00000  1000.00000    90.00000    90.00000    90.00000  Step:          42  Bead:       0 positions{angstrom}  cell{angstrom}
       O -3.16638e+00  1.06771e+00  3.49946e-01
       H -3.18895e+00  1.83997e-01  8.25450e-01
       H -2.39642e+00  1.53960e+00  7.63266e-01
       H -3.53946e+00  1.39869e+00 -4.57890e-01
4
# CELL(abcABC): 1000.00000  1000.00000  1000.00000    90.00000    90.00000    90.00000  Step:          43  Bead:       0 positions{angstrom}  cell{angstrom}
       O -3.16722e+00  1.06716e+00  3.50527e-01
       H -3.18673e+00  1.89558e-01  8.14950e-01
       H -2.38963e+00  1.54480e+00  7.53594e-01
       H -3.53508e+00  1.39662e+00 -4.46938e-01
4
# CELL(abcABC): 1000.00000  1000.00000  1000.00000    90.00000    90.00000    90.00000  Step:          44  Bead:       0 positions{angstrom}  cell{angstrom}
       O -3.16771e+00  1.06661e+00  3.51264e-01
       H -3.18483e+00  1.97313e-01  8.02353e-01
       H -2.38629e+00  1.54742e+00  7.42601e-01
       H -3.53263e+00  1.39502e+00 -4.35056e-01
4
# CELL(abcABC): 1000.00000  1000.00000  1000.00000    90.00000    90.00000    90.00000  Step:          45  Bead:       0 positions{angstrom}  cell{angstrom}
       O -3.16775e+00  1.06613e+00  3.52171e-01
       H -3.18398e+00  2.06762e-01  7.88389e-01
       H -2.38585e+00  1.54711e+00  7.30070e-01
       H -3.53323e+00  1.39345e+00 -4.22953e-01
4
# CELL(abcABC): 1000.00000  1000.00000  1000.00000    90.00000    90.00000    90.00000  Step:          46  Bead:       0 positions{angstrom}  cell{angstrom}
       O -3.16751e+00  1.06583e+00  3.53151e-01
       H -3.18364e+00  2.16739e-01  7.74211e-01
       H -2.38876e+00  1.54373e+00  7.16602e-01
       H -3.53449e+00  1.39168e+00 -4.10867e-01
4
# CELL(abcABC): 1000.00000  1000.00000  1000.00000    90.00000    90.00000    90.00000  Step:          47  Bead:       0 positions{angstrom}  cell{angstrom}
       O -3.16696e+00  1.06565e+00  3.54212e-01
       H -3.18361e+00  2.24482e-01  7.61502e-01
       H -2.39400e+00  1.53876e+00  7.02229e-01
       H -3.53793e+00  1.39176e+00 -4.00627e-01
4
# CELL(abcABC): 1000.00000  1000.00000  1000.00000    90.00000    90.00000    90.00000  Step:          48  Bead:       0 positions{angstrom}  cell{angstrom}
       O -3.16620e+00  1.06585e+00  3.55130e-01
       H -3.18333e+00  2.27509e-01  7.51180e-01
       H -2.40060e+00  1.53318e+00  6.87633e-01
       H -3.54382e+00  1.39106e+00 -3.90284e-01
4
# CELL(abcABC): 1000.00000  1000.00000  1000.00000    90.00000    90.00000    90.00000  Step:          49  Bead:       0 positions{angstrom}  cell{angstrom}
       O -3.16536e+00  1.06636e+00  3.55729e-01
       H -3.18314e+00  2.25369e-01  7.44026e-01
       H -2.40589e+00  1.52695e+00  6.74316e-01
       H -3.55199e+00  1.39140e+00 -3.79320e-01
4
# CELL(abcABC): 1000.00000  1000.00000  1000.00000    90.00000    90.00000    90.00000  Step:          50  Bead:       0 positions{angstrom}  cell{angstrom}
       O -3.16434e+00  1.06718e+00  3.56181e-01
       H -3.18333e+00  2.18590e-01  7.39204e-01
       H -2.41133e+00  1.52047e+00  6.62853e-01
       H -3.56256e+00  1.39167e+00 -3.70199e-01
4
# CELL(abcABC): 1000.00000  1000.00000  1000.00000    90.00000    90.00000    90.00000  Step:          51  Bead:       0 positions{angstrom}  cell{angstrom}
       O -3.16342e+00  1.06812e+00  3.56381e-01
       H -3.18387e+00  2.07438e-01  7.36217e-01
       H -2.41394e+00  1.51570e+00  6.53626e-01
       H -3.57399e+00  1.39267e+00 -3.61163e-01
4
# CELL(abcABC): 1000.00000  1000.00000  1000.00000    90.00000    90.00000    90.00000  Step:          52  Bead:       0 positions{angstrom}  cell{angstrom}
       O -3.16265e+00  1.06914e+00  3.56440e-01
       H -3.18472e+00  1.93595e-01  7.34889e-01
       H -2.41250e+00  1.51246e+00  6.46069e-01
       H -3.58674e+00  1.39348e+00 -3.53211e-01
4
# CELL(abcABC): 1000.00000  1000.00000  1000.00000    90.00000    90.00000    90.00000  Step:          53  Bead:       0 positions{angstrom}  cell{angstrom}
       O -3.16213e+00  1.07000e+00  3.56247e-01
       H -3.18480e+00  1.79625e-01  7.33571e-01
       H -2.40648e+00  1.51305e+00  6.42131e-01
       H -3.60104e+00  1.39333e+00 -3.44893e-01
4
# CELL(abcABC): 1000.00000  1000.00000  1000.00000    90.00000    90.00000    90.00000  Step:          54  Bead:       0 positions{angstrom}  cell{angstrom}
       O -3.16178e+00  1.07070e+00  3.55618e-01
       H -3.18464e+00  1.65788e-01  7.33651e-01
       H -2.39640e+00  1.51649e+00  6.41791e-01
       H -3.61674e+00  1.39248e+00 -3.34646e-01
4
# CELL(abcABC): 1000.00000  1000.00000  1000.00000    90.00000    90.00000    90.00000  Step:          55  Bead:       0 positions{angstrom}  cell{angstrom}
       O -3.16162e+00  1.07115e+00  3.54840e-01
       H -3.18462e+00  1.54666e-01  7.34280e-01
       H -2.38297e+00  1.52143e+00  6.44488e-01
       H -3.63272e+00  1.39155e+00 -3.25628e-01
4
# CELL(abcABC): 1000.00000  1000.00000  1000.00000    90.00000    90.00000    90.00000  Step:          56  Bead:       0 positions{angstrom}  cell{angstrom}
       O -3.16158e+00  1.07128e+00  3.54011e-01
       H -3.18188e+00  1.47516e-01  7.34899e-01
       H -2.36822e+00  1.52646e+00  6.47799e-01
       H -3.65098e+00  1.39163e+00 -3.16398e-01
4
# CELL(abcABC): 1000.00000  1000.00000  1000.00000    90.00000    90.00000    90.00000  Step:          57  Bead:       0 positions{angstrom}  cell{angstrom}
       O -3.16146e+00  1.07111e+00  3.53141e-01
       H -3.17689e+00  1.45303e-01  7.35202e-01
       H -2.35479e+00  1.53034e+00  6.53126e-01
       H -3.67115e+00  1.39271e+00 -3.08223e-01
4
# CELL(abcABC): 1000.00000  1000.00000  1000.00000    90.00000    90.00000    90.00000  Step:          58  Bead:       0 positions{angstrom}  cell{angstrom}
       O -3.16129e+00  1.07076e+00  3.52327e-01
       H -3.17008e+00  1.46824e-01  7.34451e-01
       H -2.34270e+00  1.53267e+00  6.59532e-01
       H -3.69276e+00  1.39431e+00 -3.00952e-01
4
# CELL(abcABC): 1000.00000  1000.00000  1000.00000    90.00000    90.00000    90.00000  Step:          59  Bead:       0 positions{angstrom}  cell{angstrom}
       O -3.16099e+00  1.07022e+00  3.51482e-01
       H -3.16159e+00  1.52675e-01  7.32963e-01
       H -2.33315e+00  1.53331e+00  6.67487e-01
       H -3.71570e+00  1.39644e+00 -2.94005e-01
4
# CELL(abcABC): 1000.00000  1000.00000  1000.00000    90.00000    90.00000    90.00000  Step:          60  Bead:       0 positions{angstrom}  cell{angstrom}
       O -3.16048e+00  1.06965e+00  3.50785e-01
       H -3.15342e+00  1.61676e-01  7.30925e-01
       H -2.32647e+00  1.53071e+00  6.73403e-01
       H -3.73852e+00  1.39905e+00 -2.86817e-01
4
# CELL(abcABC): 1000.00000  1000.00000  1000.00000    90.00000    90.00000    90.00000  Step:          61  Bead:       0 positions{angstrom}  cell{angstrom}
       O -3.15983e+00  1.06914e+00  3.50215e-01
       H -3.14374e+00  1.72633e-01  7.28318e-01
       H -2.32259e+00  1.52504e+00  6.77254e-01
       H -3.76243e+00  1.40191e+00 -2.79027e-01
4
# CELL(abcABC): 1000.00000  1000.00000  1000.00000    90.00000    90.00000    90.00000  Step:          62  Bead:       0 positions{angstrom}  cell{angstrom}
       O -3.15886e+00  1.06881e+00  3.49862e-01
       H -3.13433e+00  1.83938e-01  7.25359e-01
       H -2.32406e+00  1.51608e+00  6.79615e-01
       H -3.78579e+00  1.40475e+00 -2.72813e-01
4
# CELL(abcABC): 1000.00000  1000.00000  1000.00000    90.00000    90.00000    90.00000  Step:          63  Bead:       0 positions{angstrom}  cell{angstrom}
       O -3.15762e+00  1.06856e+00  3.49403e-01
       H -3.12420e+00  1.96002e-01  7.23423e-01
       H -2.32960e+00  1.50391e+00  6.80811e-01
       H -3.81010e+00  1.40895e+00 -2.64790e-01
4
# CELL(abcABC): 1000.00000  1000.00000  1000.00000    90.00000    90.00000    90.00000  Step:          64  Bead:       0 positions{angstrom}  cell{angstrom}
       O -3.15625e+00  1.06852e+00  3.48904e-01
       H -3.11260e+00  2.06667e-01  7.23513e-01
       H -2.33768e+00  1.48975e+00  6.81211e-01
       H -3.83533e+00  1.41306e+00 -2.57354e-01
4
# CELL(abcABC): 1000.00000  1000.00000  1000.00000    90.00000    90.00000    90.00000  Step:          65  Bead:       0 positions{angstrom}  cell{angstrom}
       O -3.15481e+00  1.06867e+00  3.48376e-01
       H -3.10171e+00  2.15030e-01  7.23928e-01
       H -2.34666e+00  1.47603e+00  6.80955e-01
       H -3.86006e+00  1.41605e+00 -2.49135e-01
4
# CELL(abcABC): 1000.00000  1000.00000  1000.00000    90.00000    90.00000    90.00000  Step:          66  Bead:       0 positions{angstrom}  cell{angstrom}
       O -3.15342e+00  1.06895e+00  3.47655e-01
       H -3.09104e+00  2.22141e-01  7.26690e-01
       H -2.35549e+00  1.46118e+00  6.80957e-01
       H -3.88404e+00  1.41931e+00 -2.40458e-01
4
# CELL(abcABC): 1000.00000  1000.00000  1000.00000    90.00000    90.00000    90.00000  Step:          67  Bead:       0 positions{angstrom}  cell{angstrom}
       O -3.15209e+00  1.06951e+00  3.46785e-01
       H -3.08045e+00  2.23995e-01  7.30413e-01
       H -2.36205e+00  1.44800e+00  6.81942e-01
       H -3.90921e+00  1.42180e+00 -2.31364e-01
4
# CELL(abcABC): 1000.00000  1000.00000  1000.00000    90.00000    90.00000    90.00000  Step:          68  Bead:       0 positions{angstrom}  cell{angstrom}
       O -3.15100e+00  1.07014e+00  3.45903e-01
       H -3.06979e+00  2.21313e-01  7.35355e-01
       H -2.36495e+00  1.43759e+00  6.82252e-01
       H -3.93413e+00  1.42483e+00 -2.22602e-01
4
# CELL(abcABC): 1000.00000  1000.00000  1000.00000    90.00000    90.00000    90.00000  Step:          69  Bead:       0 positions{angstrom}  cell{angstrom}
       O -3.15014e+00  1.07091e+00  3.44698e-01
       H -3.06027e+00  2.13566e-01  7.42904e-01
       H -2.36411e+00  1.43078e+00  6.84648e-01
       H -3.95818e+00  1.42712e+00 -2.13426e-01
4
# CELL(abcABC): 1000.00000  1000.00000  1000.00000    90.00000    90.00000    90.00000  Step:          70  Bead:       0 positions{angstrom}  cell{angstrom}
       O -3.14973e+00  1.07145e+00  3.43411e-01
       H -3.05138e+00  2.04310e-01  7.49659e-01
       H -2.35830e+00  1.42862e+00  6.87934e-01
       H -3.97945e+00  1.42993e+00 -2.03045e-01
4
# CELL(abcABC): 1000.00000  1000.00000  1000.00000    90.00000    90.00000    90.00000  Step:          71  Bead:       0 positions{angstrom}  cell{angstrom}
       O -3.14952e+00  1.07189e+00  3.42186e-01
       H -3.04437e+00  1.93281e-01  7.54340e-01
       H -2.34879e+00  1.42969e+00  6.91565e-01
       H -3.99931e+00  1.43297e+00 -1.91912e-01
4
# CELL(abcABC): 1000.00000  1000.00000  1000.00000    90.00000    90.00000    90.00000  Step:          72  Bead:       0 positions{angstrom}  cell{angstrom}
       O -3.14952e+00  1.07198e+00  3.40993e-01
       H -3.03833e+00  1.83222e-01  7.57871e-01
       H -2.33616e+00  1.43416e+00  6.96143e-01
       H -4.01794e+00  1.43709e+00 -1.81079e-01
4
# CELL(abcABC): 1000.00000  1000.00000  1000.00000    90.00000    90.00000    90.00000  Step:          73  Bead:       0 positions{angstrom}  cell{angstrom}
       O -3.14955e+00  1.07184e+00  3.40038e-01
       H -3.03383e+00  1.74810e-01  7.59258e-01
       H -2.32233e+00  1.44145e+00  7.00208e-01
       H -4.03581e+00  1.44050e+00 -1.71365e-01
4
# CELL(abcABC): 1000.00000  1000.00000  1000.00000    90.00000    90.00000    90.00000  Step:          74  Bead:       0 positions{angstrom}  cell{angstrom}
       O -3.14957e+00  1.07137e+00  3.39484e-01
       H -3.03041e+00  1.69050e-01  7.56978e-01
       H -2.30908e+00  1.45034e+00  7.01836e-01
       H -4.05216e+00  1.44476e+00 -1.61926e-01
4
# CELL(abcABC): 1000.00000  1000.00000  1000.00000    90.00000    90.00000    90.00000  Step:          75  Bead:       0 positions{angstrom}  cell{angstrom}
       O -3.14930e+00  1.07071e+00  3.39225e-01
       H -3.02880e+00  1.65233e-01  7.51653e-01
       H -2.29851e+00  1.45935e+00  7.02363e-01
       H -4.06856e+00  1.45003e+00 -1.53010e-01
4
# CELL(abcABC): 1000.00000  1000.00000  1000.00000    90.00000    90.00000    90.00000  Step:          76  Bead:       0 positions{angstrom}  cell{angstrom}
       O -3.14893e+00  1.06974e+00  3.39157e-01
       H -3.02755e+00  1.64652e-01  7.44978e-01
       H -2.29133e+00  1.46841e+00  7.00737e-01
       H -4.08297e+00  1.45699e+00 -1.43632e-01
4
# CELL(abcABC): 1000.00000  1000.00000  1000.00000    90.00000    90.00000    90.00000  Step:          77  Bead:       0 positions{angstrom}  cell{angstrom}
       O -3.14824e+00  1.06861e+00  3.39366e-01
       H -3.02738e+00  1.67689e-01  7.36109e-01
       H -2.28861e+00  1.47719e+00  6.97264e-01
       H -4.09676e+00  1.46317e+00 -1.34606e-01
4
# CELL(abcABC): 1000.00000  1000.00000  1000.00000    90.00000    90.00000    90.00000  Step:          78  Bead:       0 positions{angstrom}  cell{angstrom}
       O -3.14727e+00  1.06743e+00  3.40028e-01
       H -3.02917e+00  1.72069e-01  7.24512e-01
       H -2.28934e+00  1.48559e+00  6.91039e-01
       H -4.10969e+00  1.46905e+00 -1.27291e-01
4
# CELL(abcABC): 1000.00000  1000.00000  1000.00000    90.00000    90.00000    90.00000  Step:          79  Bead:       0 positions{angstrom}  cell{angstrom}
       O -3.14615e+00  1.06640e+00  3.40904e-01
       H -3.03210e+00  1.78012e-01  7.12941e-01
       H -2.29295e+00  1.49180e+00  6.82226e-01
       H -4.12085e+00  1.47333e+00 -1.20809e-01
4
# CELL(abcABC): 1000.00000  1000.00000  1000.00000    90.00000    90.00000    90.00000  Step:          80  Bead:       0 positions{angstrom}  cell{angstrom}
       O -3.14498e+00  1.06551e+00  3.41859e-01
       H -3.03483e+00  1.84093e-01  7.00774e-01
       H -2.29985e+00  1.49627e+00  6.72331e-01
       H -4.12984e+00  1.47678e+00 -1.13916e-01
4
# CELL(abcABC): 1000.00000  1000.00000  1000.00000    90.00000    90.00000    90.00000  Step:          81  Bead:       0 positions{angstrom}  cell{angstrom}
       O -3.14380e+00  1.06472e+00  3.42996e-01
       H -3.03533e+00  1.89614e-01  6.88038e-01
       H -2.31025e+00  1.50123e+00  6.60878e-01
       H -4.13773e+00  1.47900e+00 -1.07766e-01
4
# CELL(abcABC): 1000.00000  1000.00000  1000.00000    90.00000    90.00000    90.00000  Step:          82  Bead:       0 positions{angstrom}  cell{angstrom}
       O -3.14262e+00  1.06434e+00  3.44080e-01
       H -3.03465e+00  1.91824e-01  6.76746e-01
       H -2.32218e+00  1.50390e+00  6.48103e-01
       H -4.14507e+00  1.48007e+00 -1.00910e-01
4
# CELL(abcABC): 1000.00000  1000.00000  1000.00000    90.00000    90.00000    90.00000  Step:          83  Bead:       0 positions{angstrom}  cell{angstrom}
       O -3.14161e+00  1.06421e+00  3.45142e-01
       H -3.03318e+00  1.90914e-01  6.66966e-01
       H -2.33469e+00  1.50643e+00  6.34656e-01
       H -4.15017e+00  1.48058e+00 -9.45365e-02
4
# CELL(abcABC): 1000.00000  1000.00000  1000.00000    90.00000    90.00000    90.00000  Step:          84  Bead:       0 positions{angstrom}  cell{angstrom}
       O -3.14080e+00  1.06435e+00  3.46158e-01
       H -3.02969e+00  1.85443e-01  6.57432e-01
       H -2.34728e+00  1.50929e+00  6.21022e-01
       H -4.15391e+00  1.48084e+00 -8.75015e-02
4
# CELL(abcABC): 1000.00000  1000.00000  1000.00000    90.00000    90.00000    90.00000  Step:          85  Bead:       0 positions{angstrom}  cell{angstrom}