11135
# CELL(abcABC):   47.46614    47.46614    47.46614    90.00000    90.00000    90.00000  Step:        4000  Bead:       0 positions{angstrom}  cell{angstrom}
       C -7.51073e+00 -2.07352e+00  2.31442e+00
       H -7.66394e+00 -1.28292e+00  3.05628e+00
       H -7.36323e+00 -3.02412e+00  2.71845e+00
       H -8.34885e+00 -2.25125e+00  1.66340e+00
       C -6.27429e+00 -1.69460e+00  1.49841e+00
       O -5.49978e+00 -2.58464e+00  1.19185e+00
       N -6.14144e+00 -3.48624e-01  1.30031e+00
       H -6.77585e+00  3.78559e-01  1.66285e+00
       C -4.96453e+00  9.02119e-02  5.63584e-01
       H -4.58075e+00 -6.23475e-01 -1.25417e-01
       C -5.21150e+00  1.27693e+00 -3.23492e-01
       H -4.29327e+00  1.52847e+00 -8.05533e-01
       H -5.60642e+00  2.11382e+00  3.45573e-01
       C -6.36764e+00  1.04477e+00 -1.34882e+00
       H -7.28545e+00  5.81415e-01 -8.80503e-01
       H -6.08774e+00  2.29294e-01 -2.07240e+00
       C -6.81109e+00  2.17844e+00 -2.21083e+00
       H -5.86488e+00  2.60377e+00 -2.73859e+00
       H -7.09459e+00  2.96762e+00 -1.43462e+00
       C -7.92645e+00  1.93922e+00 -3.17808e+00
       H -8.12019e+00  2.83116e+00 -3.84037e+00
       H -8.79761e+00  1.63851e+00 -2.64742e+00
       N -7.62020e+00  8.78702e-01 -4.10885e+00
       H -6.61524e+00  9.52326e-01 -4.42925e+00
       H -8.36062e+00  8.62941e-01 -4.99791e+00
       H -7.76872e+00  3.05943e-02 -3.58925e+00
       C -4.00386e+00  4.57081e-01  1.57226e+00
       O -3.75266e+00  1.64283e+00  1.88719e+00
       N -3.37181e+00 -6.38194e-01  2.14901e+00
       H -3.70843e+00 -1.58866e+00  2.01764e+00
       H -2.60103e+00 -4.39262e-01  2.77423e+00
       O -1.26542e+01 -8.76771e+00 -2.46278e+01
       H -1.35663e+01 -8.60928e+00 -2.49333e+01
       H -1.26053e+01 -7.91576e+00 -2.41858e+01
       O -1.81404e+01 -4.32967e+00 -8.60086e+00
       H -1.81758e+01 -3.35148e+00 -8.64343e+00
       H -1.88028e+01 -4.60660e+00 -9.23677e+00
       O  9.21458e+00 -1.42665e+01 -5.15304e+00
       H  8.55011e+00 -1.49159e+01 -5.46022e+00
       H  8.94839e+00 -1.41771e+01 -4.27421e+00
       O -2.25968e+01 -1.10143e+01 -2.55038e+01
       H -2.33294e+01 -1.07797e+01 -2.60183e+01
       H -2.17967e+01 -1.06173e+01 -2.59552e+01
       O -1.37956e+01 -1.14830e+01 -1.98653e+01
       H -1.31981e+01 -1.09050e+01 -2.03535e+01
       H -1.32279e+01 -1.23043e+01 -1.98327e+01
       O  2.20017e+01 -2.17457e+01  1.84210e+01
       H  2.20981e+01 -2.13151e+01  1.93055e+01
       H  2.29579e+01 -2.19216e+01  1.81793e+01
       O -1.84917e+01 -8.34494e+00 -8.98521e+00
       H -1.82237e+01 -7.71638e+00 -8.33439e+00
       H -1.76558e+01 -8.39865e+00 -9.47053e+00
       O  1.87140e+01 -2.59717e+01 -1.39654e+01
       H  1.87919e+01 -2.59344e+01 -1.29663e+01
       H  1.77168e+01 -2.61225e+01 -1.40716e+01
       O -1.54353e+01 -1.83237e+01 -3.32474e+00
       H -1.47848e+01 -1.86160e+01 -3.93222e+00
       H -1.48520e+01 -1.81572e+01 -2.56354e+00
       O  1.43564e+01 -2.03233e+01 -1.07042e+01
       H  1.34541e+01 -2.02953e+01 -1.04468e+01
       H  1.47742e+01 -1.95353e+01 -1.03252e+01
       O -3.18724e+01 -1.34767e+01 -3.32007e+00
       H -3.10346e+01 -1.33083e+01 -2.92865e+00
       H -3.19024e+01 -1.44236e+01 -3.23465e+00
       O  6.39904e+00 -2.99321e+01 -6.06442e+00
       H  6.43766e+00 -3.08946e+01 -5.97154e+00
       H  5.47068e+00 -2.98393e+01 -5.96281e+00
       O  8.66604e+00  1.65427e+01 -1.03322e+01
       H  8.12476e+00  1.57907e+01 -1.00035e+01
       H  8.89651e+00  1.62112e+01 -1.11991e+01
       O -3.15458e+01 -9.94947e+00 -7.28567e+00
       H -3.15476e+01 -1.02145e+01 -8.17015e+00
       H -3.06922e+01 -1.03659e+01 -7.04823e+00
       O -5.61395e+00 -1.92648e+01 -2.58400e+01
       H -5.33040e+00 -1.94458e+01 -2.49383e+01
       H -5.00409e+00 -1.85688e+01 -2.60750e+01
       O -3.43315e+00 -9.87787e+00 -8.33074e+00
       H -3.91283e+00 -1.04871e+01 -7.76090e+00
       H -4.18066e+00 -9.77295e+00 -8.95501e+00
       O -1.02772e+01 -1.68313e+01  5.19155e-01
       H -9.86067e+00 -1.71769e+01 -2.98804e-01
       H -1.10705e+01 -1.73922e+01  6.08783e-01
       O -6.42867e-01 -1.79904e+01 -2.48310e+01
       H -5.52512e-01 -1.81443e+01 -2.58258e+01
       H -2.60162e-01 -1.71355e+01 -2.46919e+01
       O -3.45273e+00 -1.77198e+01 -1.09914e+01
       H -4.10344e+00 -1.84282e+01 -1.08565e+01
       H -3.39897e+00 -1.78242e+01 -1.19586e+01
       O -1.15439e+01  1.66298e+01 -8.97461e-01
       H -1.09807e+01  1.60636e+01 -3.18723e-01
       H -1.17939e+01  1.59626e+01 -1.47501e+00
       O -2.61975e+01 -4.04724e+00 -1.01201e+01
       H -2.67881e+01 -3.48028e+00 -1.06160e+01
       H -2.57402e+01 -4.51891e+00 -1.09031e+01
       O -2.20938e+01 -1.28679e+01 -1.08180e+01
       H -2.18349e+01 -1.35168e+01 -1.00701e+01
       H -2.20632e+01 -1.19961e+01 -1.03219e+01
       O  2.11224e+01 -1.81808e+01 -2.15273e+01
       H  2.18833e+01 -1.83568e+01 -2.09196e+01
       H  2.03673e+01 -1.85180e+01 -2.09739e+01
       O -1.66836e+01 -1.57907e+01 -1.30510e+01
       H -1.75293e+01 -1.53402e+01 -1.32273e+01
       H -1.62147e+01 -1.50306e+01 -1.27699e+01
       O -4.38116e+00 -2.07173e+01 -1.49468e+01
       H -4.29758e+00 -2.14838e+01 -1.55343e+01
       H -5.33921e+00 -2.04887e+01 -1.50889e+01
       O -1.78489e+01 -1.59962e+01  2.04919e+01
       H -1.83863e+01 -1.51962e+01  2.07058e+01
       H -1.83243e+01 -1.63379e+01  1.97008e+01
       O -5.96925e+00 -3.45260e+01 -1.97096e+01
       H -5.20534e+00 -3.40355e+01 -2.00451e+01
       H -6.63379e+00 -3.39270e+01 -2.00048e+01
       O -7.55080e+00 -4.25842e+00  1.85139e+01
       H -8.14288e+00 -4.60644e+00  1.91411e+01
       H -6.80287e+00 -4.83080e+00  1.85791e+01
       O -1.52871e+01 -4.63461e-01  5.33804e-01
       H -1.46915e+01 -1.12344e+00  9.14548e-01
       H -1.46152e+01  1.56931e-01  2.27459e-01
       O -2.63658e+01 -1.18847e+01  2.29913e+01
       H -2.72708e+01 -1.19676e+01  2.33198e+01
       H -2.60476e+01 -1.11168e+01  2.34980e+01
       O -1.88471e+01 -1.37594e+01 -2.13344e+01
       H -1.80572e+01 -1.32806e+01 -2.16153e+01
       H -1.84939e+01 -1.46662e+01 -2.15593e+01
       O  2.90388e+00 -8.66340e+00 -2.00103e+01
       H  2.04125e+00 -8.18445e+00 -1.98476e+01
       H  3.35600e+00 -8.69847e+00 -1.91242e+01
       O  4.24817e+00 -8.05740e+00 -3.02429e+01
       H  3.36377e+00 -7.83336e+00 -2.98960e+01
       H  4.04305e+00 -8.40721e+00 -3.11656e+01
       O -8.90795e+00 -1.86799e+01  6.00384e+00
       H -8.92392e+00 -1.92579e+01  5.22263e+00
       H -9.50698e+00 -1.79438e+01  5.73172e+00
       O -1.47535e+01 -1.39034e+01 -1.26120e+01
       H -1.44258e+01 -1.46312e+01 -1.32254e+01
       H -1.40508e+01 -1.40625e+01 -1.19585e+01
       O -2.39677e+01 -1.83279e+01  1.86152e+01
       H -2.46627e+01 -1.80015e+01  1.80317e+01
       H -2.31852e+01 -1.83697e+01  1.79874e+01
       O -1.51689e+01 -2.46895e+01 -8.63144e+00
       H -1.53674e+01 -2.52309e+01 -7.89761e+00
       H -1.44376e+01 -2.51587e+01 -9.00185e+00
       O -4.41552e+00 -7.65834e+00 -3.22782e+01
       H -3.50295e+00 -7.34728e+00 -3.24532e+01
       H -4.88072e+00 -7.11753e+00 -3.28283e+01
       O -1.20349e+01  4.27833e+00 -1.35304e+01
       H -1.23924e+01  3.37738e+00 -1.34883e+01
       H -1.20651e+01  4.42311e+00 -1.25648e+01
       O -4.07155e+00 -2.98843e+01 -1.81744e+01
       H -4.18777e+00 -3.02468e+01 -1.90584e+01
       H -3.64271e+00 -3.06394e+01 -1.77970e+01
       O  1.34610e+01 -2.09192e+01 -1.33152e+01
       H  1.39337e+01 -2.04954e+01 -1.25854e+01
       H  1.41640e+01 -2.07883e+01 -1.39906e+01
       O -1.20249e+01 -6.14991e+00 -3.58941e+01
       H -1.21736e+01 -7.08916e+00  1.15545e+01
       H -1.29778e+01 -5.94528e+00 -3.58408e+01
       O  1.72416e+01 -2.33641e+01 -9.02940e+00
       H  1.66492e+01 -2.28004e+01 -8.47205e+00
       H  1.72434e+01 -2.41941e+01 -8.53592e+00
       O -1.94883e+01 -1.01381e+01 -1.91994e+01
       H -1.88756e+01 -9.83429e+00 -1.84921e+01
       H -1.93273e+01 -1.10376e+01 -1.92469e+01
       O -2.40527e+01 -1.83838e+01 -1.40003e+01
       H -2.44445e+01 -1.86039e+01 -1.31610e+01
       H -2.32564e+01 -1.79612e+01 -1.37030e+01
       O -3.66698e+00 -1.35689e+01  1.16801e+01
       H -3.25039e+00 -1.43739e+01  1.13730e+01
       H -4.42400e+00 -1.39432e+01  1.22001e+01
       O -1.58952e+01 -1.86029e+01  4.46076e-01
       H -1.52379e+01 -1.79467e+01  1.61389e-01
       H -1.57295e+01 -1.92161e+01 -3.09779e-01
       O  4.91769e+00 -1.33944e+01 -1.26666e+01
       H  4.01114e+00 -1.34579e+01 -1.25497e+01
       H  5.38830e+00 -1.42218e+01 -1.24807e+01
       O  5.28941e+00 -8.97855e+00 -1.54498e+01
       H  4.38281e+00 -8.58823e+00 -1.55196e+01
       H  5.31959e+00 -9.43871e+00 -1.44984e+01
       O -2.13692e+01  7.42652e-01 -1.72045e+01
       H -2.06544e+01  2.76427e-01 -1.68072e+01
       H -2.21631e+01  3.16431e-01 -1.68903e+01
       O -1.54306e+01 -9.11602e+00 -2.70839e+01
       H -1.60263e+01 -9.91981e+00 -2.72367e+01
       H -1.58566e+01 -8.85318e+00 -2.62847e+01
       O -1.47234e+01 -1.31489e+01 -2.30725e+01
       H -1.44853e+01 -1.41224e+01 -2.31541e+01
       H -1.39487e+01 -1.26985e+01 -2.34101e+01
       O -1.25259e+01 -1.14796e+01 -2.41641e+01
       H -1.25557e+01 -1.18563e+01 -2.50736e+01
       H -1.25831e+01 -1.05331e+01 -2.43627e+01
       O -1.26038e+01 -3.12372e+00 -8.60107e+00
       H -1.19412e+01 -2.39268e+00 -8.68911e+00
       H -1.20661e+01 -3.91313e+00 -8.84263e+00
       O  4.78971e+00 -6.61640e+00 -1.76906e+01
       H  4.36562e+00 -6.62404e+00 -1.68191e+01
       H  5.72929e+00 -6.58516e+00 -1.74250e+01
       O -1.66613e+01 -1.10981e+01  5.03822e+00
       H -1.59351e+01 -1.08469e+01  4.48371e+00
       H -1.62430e+01 -1.16916e+01  5.65410e+00
       O -1.52300e+01 -6.70013e+00 -2.18743e-01
       H -1.44891e+01 -6.84460e+00 -8.19903e-01
       H -1.59485e+01 -7.00748e+00 -7.97869e-01
       O -4.42189e+00 -1.45078e+01 -2.22190e+01
       H -5.16849e+00 -1.39056e+01 -2.23011e+01
       H -4.70332e+00 -1.52644e+01 -2.27918e+01
       O -3.75851e+00 -1.80824e+01 -1.37967e+01
       H -3.87379e+00 -1.88956e+01 -1.42769e+01
       H -4.63475e+00 -1.78311e+01 -1.35876e+01
       O -2.09924e+00  2.27087e+01  5.45277e+00
       H -1.83406e+00  2.17686e+01  5.38808e+00
       H -3.03589e+00  2.26674e+01  5.10767e+00
       O -1.01375e+01 -6.56992e+00 -2.77043e+01
       H -1.07638e+01 -7.18207e+00 -2.74089e+01
       H -1.07488e+01 -5.88520e+00 -2.78973e+01
       O -7.39610e+00  2.62673e+01  6.85489e+00
       H -7.43591e+00  2.71910e+01  6.65002e+00
       H -7.09048e+00  2.63526e+01  7.76870e+00
       O -7.84203e+00 -1.14505e+01 -9.31926e+00
       H -7.32276e+00 -1.11797e+01 -8.59245e+00
       H -7.62177e+00 -1.24264e+01 -9.20427e+00
       O  4.29484e+00 -1.50176e+01 -3.98312e+00
       H  3.66933e+00 -1.57805e+01 -4.19007e+00
       H  5.10232e+00 -1.52559e+01 -4.46479e+00
       O -7.79002e+00 -8.17548e+00  7.18329e+00
       H -7.73442e+00 -9.10156e+00  6.88926e+00
       H -7.02970e+00 -8.18335e+00  7.81018e+00
       O -1.57364e+01 -1.34995e+00  1.55904e+01
       H -1.55963e+01 -1.50805e+00  1.46292e+01
       H -1.48493e+01 -1.32388e+00  1.59453e+01
       O -2.26704e+01 -1.46364e+01 -1.28877e+01
       H -2.25835e+01 -1.42591e+01 -1.20172e+01
       H -2.35261e+01 -1.43062e+01 -1.31831e+01
       O  2.21172e+00 -1.60792e+01 -9.25195e+00
       H  2.57752e+00 -1.63058e+01 -8.38208e+00
       H  2.97464e+00 -1.62570e+01 -9.86918e+00
       O -1.70718e+01 -2.14442e+01 -1.54684e+01
       H -1.69528e+01 -2.23864e+01 -1.54847e+01
       H -1.71947e+01 -2.11510e+01 -1.45674e+01
       O -3.19181e+01 -2.72904e+01  2.40133e+01
       H -3.22934e+01 -2.74967e+01  2.31220e+01
       H -3.10609e+01 -2.71522e+01  2.36009e+01
       O  2.06173e+01  2.49151e+01  2.76051e+01
       H  2.13716e+01  2.48772e+01  2.82408e+01
       H  2.09093e+01  2.43109e+01  2.68204e+01
       O -4.62074e+00 -1.56647e+01 -9.75756e+00
       H -4.67552e+00 -1.51923e+01 -1.06154e+01
       H -3.97077e+00 -1.64094e+01 -9.99532e+00
       O -1.20073e+01 -1.09035e+01 -1.25470e+01
       H -1.19944e+01 -1.00255e+01 -1.21507e+01
       H -1.10397e+01 -1.10527e+01 -1.25141e+01
       O -1.77918e+01 -2.85657e+00  6.17082e+00
       H -1.68673e+01 -2.64373e+00  6.20056e+00
       H -1.79226e+01 -3.47643e+00  6.92487e+00
       O -1.27979e+01 -1.70729e+01 -2.47221e+01
       H -1.27048e+01 -1.62818e+01 -2.53417e+01
       H -1.19430e+01 -1.76429e+01 -2.49296e+01
       O -2.06655e+01 -1.37216e+01 -2.34079e+01
       H -1.99068e+01 -1.36919e+01 -2.27483e+01
       H -2.13772e+01 -1.33187e+01 -2.29388e+01
       O -4.62359e+00 -9.78008e+00 -1.47978e+01
       H -3.78411e+00 -9.49684e+00 -1.44225e+01
       H -4.42114e+00 -1.07077e+01 -1.49655e+01
       O -1.58004e+01 -1.25449e+01 -1.83403e+01
       H -1.49791e+01 -1.21823e+01 -1.87258e+01
       H -1.58352e+01 -1.19799e+01 -1.75657e+01
       O -1.31072e+01 -1.85690e+01 -1.49209e+01
       H -1.26674e+01 -1.87304e+01 -1.57796e+01
       H -1.37486e+01 -1.93019e+01 -1.49905e+01
       O -1.48074e+01 -9.57389e+00 -6.58285e+00
       H -1.51884e+01 -1.04624e+01 -6.56585e+00
       H -1.55663e+01 -9.17626e+00 -7.07269e+00
       O -1.33172e+01 -1.65109e+01 -7.98157e+00
       H -1.33818e+01 -1.73608e+01 -7.52420e+00
       H -1.25421e+01 -1.66617e+01 -8.42523e+00
       O  1.78260e+01 -1.31995e+01 -1.45711e+01
       H  1.79205e+01 -1.34713e+01 -1.54974e+01
       H  1.76309e+01 -1.41207e+01 -1.41655e+01
       O -7.71673e+00 -2.48143e+01 -1.92724e+00
       H -8.70283e+00 -2.48574e+01 -1.80232e+00
       H -7.68264e+00 -2.56211e+01 -2.47779e+00
       O -1.95299e+01 -2.36071e+01  1.05901e+01
       H -1.99543e+01 -2.44499e+01  1.08296e+01
       H -2.02846e+01 -2.30303e+01  1.05241e+01
       O -1.30082e+01 -1.08575e+01 -8.42454e+00
       H -1.35659e+01 -1.04735e+01 -7.78436e+00
       H -1.31712e+01 -1.02328e+01 -9.13379e+00
       O -1.38999e+01  6.00397e-01 -1.58806e+01
       H -1.35117e+01  2.69693e-01 -1.66995e+01
       H -1.36329e+01 -9.20447e-02 -1.52737e+01
       O  3.07531e+01 -1.62827e+01  2.77244e+00
       H  3.11763e+01 -1.55827e+01  2.27846e+00
       H  3.15227e+01 -1.68578e+01  2.80203e+00
       O  1.55245e+01 -1.70726e+01 -2.52569e+01
       H  1.61675e+01 -1.65806e+01 -2.47286e+01
       H  1.48133e+01 -1.63844e+01 -2.52193e+01
       O  4.25691e+00 -2.80035e+01  2.95465e-01
       H  3.91138e+00 -2.85956e+01  9.60666e-01
       H  3.78276e+00 -2.84387e+01 -3.99003e-01
       O -2.43058e+01 -1.79219e+01 -2.33042e+01
       H -2.43233e+01 -1.88026e+01 -2.37803e+01
       H -2.51661e+01 -1.79715e+01 -2.27130e+01
       O -5.81841e-01 -1.44996e+01 -1.23220e+01
       H -9.18306e-01 -1.46323e+01 -1.13747e+01
       H -1.38532e+00 -1.45055e+01 -1.28437e+01
       O  2.14945e+00 -9.59674e+00 -9.60755e+00
       H  3.08343e+00 -9.78785e+00 -9.62842e+00
       H  1.89038e+00 -1.02922e+01 -9.01378e+00
       O -9.19657e+00 -4.61398e+00 -2.66350e+00
       H -9.27953e+00 -4.62826e+00 -3.64633e+00
       H -8.29457e+00 -4.37929e+00 -2.58110e+00
       O -1.56736e+01  1.45832e+01 -1.04805e+01
       H -1.60100e+01  1.51496e+01 -9.80010e+00
       H -1.65478e+01  1.41711e+01 -1.06287e+01
       O -2.64273e-01 -1.22905e+01 -2.66109e+01
       H -7.30249e-01 -1.17152e+01 -2.59694e+01
       H  6.07498e-01 -1.23687e+01 -2.62035e+01
       O -2.23009e+01 -1.11373e+01  2.47537e+01
       H -2.26584e+01 -1.08420e+01  2.38108e+01
       H -2.31344e+01 -1.09425e+01  2.52071e+01
       O  2.18900e+01 -1.35477e+01  4.09582e+01
       H  2.14231e+01 -1.40480e+01  4.16854e+01
       H  2.18035e+01 -1.42394e+01  4.02370e+01
       O -1.15650e+01 -9.56139e+00 -1.64430e+01
       H -1.12250e+01 -8.66366e+00 -1.66571e+01
       H -1.22555e+01 -9.33632e+00 -1.58607e+01
       O -1.60428e+01 -1.52821e+01 -1.90165e+01
       H -1.61962e+01 -1.56288e+01 -1.80718e+01
       H -1.65399e+01 -1.44837e+01 -1.90182e+01
       O -2.14095e+01 -8.20934e+00  2.81139e+01
       H -2.18552e+01 -8.25422e+00  2.89541e+01
       H -2.07100e+01 -8.90638e+00  2.82791e+01
       O -9.66351e+00 -1.23971e+01 -2.28836e+01
       H -1.03383e+01 -1.18773e+01 -2.33523e+01
       H -9.95361e+00 -1.33263e+01 -2.29850e+01
       O -9.20580e+00 -1.55077e+01 -1.92202e+01
       H -9.84377e+00 -1.51560e+01 -1.85391e+01
       H -9.20760e+00 -1.65155e+01 -1.90882e+01
       O -9.04829e+00  2.02738e+01 -6.97916e+00
       H -8.37349e+00  2.09124e+01 -6.76106e+00
       H -8.61718e+00  1.99438e+01 -7.83506e+00
       O -1.22570e+01  1.02081e+00 -9.94037e+00
       H -1.28940e+01  7.40690e-01 -9.26317e+00
       H -1.24767e+01  4.21499e-01 -1.07029e+01
       O -8.88418e+00 -1.15487e+01  2.96560e+00
       H -9.77080e+00 -1.18954e+01  2.66903e+00
       H -8.91209e+00 -1.21753e+01  3.69694e+00
       O -3.72890e+00 -1.68990e+01 -2.65162e+01
       H -3.70740e+00 -1.66751e+01 -2.74561e+01
       H -3.14316e+00 -1.62302e+01 -2.61854e+01
       O  1.40567e+01 -3.30533e+00 -1.10543e+01
       H  1.42307e+01 -3.82774e+00 -1.03343e+01
       H  1.35893e+01 -2.58872e+00 -1.06340e+01
       O -1.48209e+01 -6.76236e+00  1.88826e+01
       H -1.52575e+01 -7.64198e+00  1.88078e+01
       H -1.41126e+01 -6.75856e+00  1.82081e+01
       O  2.48055e+01 -1.81809e+01  1.63146e+01
       H  2.57154e+01 -1.80474e+01  1.60179e+01
       H  2.43314e+01 -1.79161e+01  1.55263e+01
       O -2.43244e+01 -1.01804e+01  1.62061e+01
       H -2.33582e+01 -1.01299e+01  1.64693e+01
       H -2.43317e+01 -9.43447e+00  1.55505e+01
       O -1.69674e+01  2.68627e+01 -1.29381e+01
       H -1.76618e+01  2.68068e+01 -1.22938e+01
       H -1.61977e+01  2.65334e+01 -1.23927e+01
       O -1.60526e+01 -8.63333e+00  1.69898e+01
       H -1.69079e+01 -8.58597e+00  1.73510e+01
       H -1.60764e+01 -7.89313e+00  1.63074e+01
       O  2.48324e+01 -2.48356e+01  1.24928e+01
       H  2.49949e+01 -2.39010e+01  1.23492e+01
       H  2.38838e+01 -2.48053e+01  1.27228e+01
       O  1.11049e+01 -2.53185e+01 -1.27518e+01
       H  1.05370e+01 -2.50355e+01 -1.34199e+01
       H  1.11082e+01 -2.45572e+01 -1.21347e+01
       O -1.14179e+01 -1.94253e+01 -2.28432e+00
       H -1.08953e+01 -1.98876e+01 -2.91658e+00
       H -1.10729e+01 -1.84943e+01 -2.39143e+00
       O  8.73405e+00 -1.94268e+01 -2.42744e+00
       H  8.89117e+00 -1.86533e+01 -2.99548e+00
       H  9.20513e+00 -1.92273e+01 -1.62531e+00
       O -1.17169e+01  1.81579e+01 -2.23211e+01
       H -1.18046e+01  1.89152e+01  2.57397e+01
       H -1.26340e+01  1.78891e+01  2.50796e+01
       O  1.68799e+01 -1.86575e+01  2.01674e+01
       H  1.66704e+01 -1.82799e+01 -2.64198e+01
       H  1.61606e+01 -1.81882e+01 -2.76911e+01
       O  1.50188e+00  1.28440e+01  3.71195e+00
       H  1.03013e+00  1.35536e+01  4.06620e+00
       H  2.19840e+00  1.28265e+01  4.43137e+00
       O -1.28304e+01  2.62232e+01  1.70483e+01
       H -1.37084e+01  2.65073e+01  1.70209e+01
       H -1.28822e+01  2.56097e+01  1.77286e+01
       O  2.31380e+01 -6.26093e+00  4.09126e+01
       H  2.22762e+01 -5.98529e+00  4.05157e+01
       H  2.37743e+01 -5.66446e+00  4.04236e+01
       O  1.57183e+01 -1.52495e+01 -1.66571e+01
       H  1.51771e+01 -1.55199e+01 -1.59056e+01
       H  1.52345e+01 -1.44799e+01 -1.69213e+01
       O -3.31116e+00 -1.50321e+01 -1.82534e+01
       H -3.42708e+00 -1.40942e+01 -1.84523e+01
       H -2.85280e+00 -1.53393e+01 -1.90241e+01
       O -1.46883e+01 -2.03262e+01 -5.14481e+00
       H -1.41454e+01  2.63678e+01 -5.51607e+00
       H -1.54460e+01 -2.08089e+01 -4.88345e+00
       O  3.21066e+01  1.25344e+00  2.43291e+01
       H  3.22902e+01  4.20262e-01  2.47495e+01
       H  3.12284e+01  1.06396e+00  2.39117e+01
       O -2.35526e+01  6.25069e+00 -4.78632e+00
       H -2.34972e+01  5.82749e+00 -3.90908e+00
       H -2.34810e+01  5.46506e+00 -5.43331e+00
       O  1.94821e+01 -6.83765e+00 -1.40618e+01
       H  1.87285e+01 -6.57530e+00 -1.34835e+01
       H  1.97173e+01 -7.78699e+00 -1.38923e+01
       O -9.76923e+00 -1.83257e+01  2.57473e+01
       H -1.02320e+01 -1.87724e+01  2.50298e+01
       H -8.89348e+00 -1.82718e+01  2.53848e+01
       O -1.14874e+01 -7.57015e+00  3.04739e-01
       H -1.18811e+01 -8.07761e+00 -4.79183e-01
       H -1.06613e+01 -8.15154e+00  4.10594e-01
       O  2.50637e+00 -2.10215e+01 -1.40018e+01
       H  2.03629e+00 -2.06824e+01 -1.32391e+01
       H  1.84261e+00 -2.15084e+01 -1.45866e+01
       O -1.88391e+01 -6.91369e+00 -1.26951e+01
       H -1.80175e+01 -6.66306e+00 -1.30920e+01
       H -1.92171e+01 -7.50149e+00 -1.33893e+01
       O -2.05204e+01 -2.22848e+01  2.01979e+01
       H -1.99335e+01 -2.16466e+01  2.06353e+01
       H -2.00781e+01 -2.30831e+01  2.03634e+01
       O  4.28663e+00 -3.28291e+01 -5.18452e-01
       H  3.76657e+00 -3.25115e+01  2.81272e-01
       H  4.97100e+00 -3.21818e+01 -5.43769e-01
       O -9.79917e+00 -1.50075e+01  1.92541e+01
       H -9.94789e+00 -1.40268e+01  1.93248e+01
       H -9.89843e+00 -1.52092e+01  2.01914e+01
       O  1.40564e+00 -4.11693e+00 -6.96360e+00
       H  1.98096e+00 -4.20603e+00 -7.72161e+00
       H  6.86912e-01 -3.42236e+00 -7.25828e+00
       O -1.43932e+01 -1.06033e+01 -1.38677e+01
       H -1.36916e+01 -1.10323e+01 -1.33558e+01
       H -1.39829e+01 -9.69327e+00 -1.41751e+01
       O  1.95745e+01 -2.07131e+01 -1.71982e+01
       H  2.00502e+01 -2.14616e+01 -1.68663e+01
       H  1.87043e+01 -2.09467e+01 -1.68753e+01
       O -1.16808e+01 -2.25290e+01 -8.22307e+00
       H -1.14250e+01 -2.33549e+01 -8.67119e+00
       H -1.20813e+01 -2.20291e+01 -8.96916e+00
       O -1.11858e+01 -1.50375e+01 -1.71471e+01
       H -1.20328e+01 -1.52556e+01 -1.75587e+01
       H -1.13604e+01 -1.42275e+01 -1.66267e+01
       O  1.31893e+00 -2.38353e+01 -2.66973e+01
       H  1.71735e+00 -2.46348e+01 -2.65223e+01
       H  1.05102e+00 -2.36904e+01 -2.57549e+01
       O  1.44373e+01 -2.37327e+01 -1.86258e+01
       H  1.38219e+01 -2.30778e+01 -1.82729e+01
       H  1.50937e+01 -2.37485e+01 -1.78976e+01
       O  1.39114e+01  2.34063e+01  1.23554e+01
       H  1.41503e+01  2.41998e+01  1.27724e+01
       H  1.47729e+01  2.30491e+01  1.21116e+01
       O -9.06889e+00 -5.36995e+00 -1.11172e+01
       H -8.40218e+00 -4.70587e+00 -1.08379e+01
       H -9.74136e+00 -4.90084e+00 -1.16281e+01
       O -5.02943e-01 -3.36147e+01 -3.74771e+00
       H -1.73662e-01  1.34945e+01 -2.91792e+00
       H -4.88830e-01 -3.26525e+01 -3.53843e+00
       O -2.16867e+00 -1.04821e+01 -2.52276e+01
       H -2.94632e+00 -1.02208e+01 -2.57289e+01
       H -2.09110e+00 -9.74742e+00 -2.45406e+01
       O -2.19137e+01 -3.78821e+01  9.31756e+00
       H -2.28213e+01 -3.75538e+01  9.07362e+00
       H -2.16467e+01 -3.72311e+01  1.00332e+01
       O -1.27541e+00  9.81397e+00 -5.54541e+00
       H -1.43808e+00  1.06238e+01 -6.09090e+00
       H -1.74466e+00  1.01103e+01 -4.77082e+00
       O -2.03159e+01 -9.25343e+00 -5.98114e+00
       H -2.00779e+01 -9.84977e+00 -6.72545e+00
       H -2.00025e+01 -8.39603e+00 -6.30880e+00
       O  2.84627e+01 -1.61160e+01  1.40539e+01
       H  2.88787e+01 -1.54710e+01  1.46145e+01
       H  2.93380e+01 -1.65783e+01  1.38695e+01
       O -8.02377e+00 -1.88387e+01  1.70981e+00
       H -8.29245e+00 -1.79871e+01  1.43001e+00
       H -8.68425e+00 -1.91713e+01  2.24673e+00
       O  1.25659e+01 -1.49280e+01 -1.00839e+01
       H  1.19899e+01 -1.51878e+01 -9.29982e+00
       H  1.30512e+01  3.32902e+01 -9.60185e+00
       O -1.36445e+01  1.98076e+01  5.23263e+00
       H -1.39582e+01  1.94831e+01  6.07064e+00
       H -1.28663e+01  1.92055e+01  5.07372e+00
       O -4.29629e+00 -7.02958e+00 -2.58948e+01
       H -3.34620e+00 -6.83584e+00 -2.57491e+01
       H -4.24363e+00 -7.94941e+00 -2.61761e+01
       O  2.41430e+01 -1.43648e+01  2.54892e+01
       H  2.45733e+01 -1.51314e+01  2.57599e+01
       H  2.31778e+01 -1.45693e+01  2.54735e+01
       O  1.05599e+01  1.25499e+00 -2.50948e+00
       H  1.05733e+01  9.11826e-01 -1.65364e+00
       H  9.60340e+00  1.27607e+00 -2.73389e+00
       O  8.89646e+00 -1.15314e+01 -2.36469e+01
       H  8.40579e+00 -1.09770e+01 -2.29777e+01
       H  9.46321e+00 -1.08383e+01 -2.39646e+01
       O -8.80877e+00  2.44124e+01 -6.14371e+00
       H -8.27646e+00  2.39733e+01 -6.78933e+00
       H -9.61657e+00  2.38425e+01 -6.26067e+00
       O -7.96275e+00 -1.71836e+01 -2.33371e+01
       H -7.04211e+00 -1.68425e+01 -2.32879e+01
       H -7.84438e+00 -1.78996e+01 -2.39873e+01
       O  1.77521e+00 -1.32671e+00 -1.50444e+01
       H  2.31130e+00 -6.07626e-01 -1.46445e+01
       H  2.21997e+00 -1.60361e+00 -1.58721e+01
       O -3.85143e+00 -1.08670e+01  1.16810e+01
       H -3.37114e+00 -1.04586e+01  1.24554e+01
       H -3.80862e+00 -1.17600e+01  1.19290e+01
       O -1.00099e+01 -2.18296e+01 -2.66657e+01
       H -9.27931e+00 -2.13755e+01 -2.63140e+01
       H -1.05337e+01 -2.10360e+01 -2.70025e+01
       O  8.56984e+00 -1.28685e+00 -3.15017e+01
       H  7.90082e+00 -1.23707e+00 -3.07832e+01
       H  8.36722e+00 -2.13508e+00 -3.20191e+01
       O -1.09631e+01 -9.37127e+00  2.07614e+01
       H -1.00351e+01 -9.04079e+00  2.10514e+01
       H -1.15240e+01 -9.03232e+00  2.14704e+01
       O -1.32364e+01 -1.87164e+01 -6.43325e+00
       H -1.37301e+01 -1.93772e+01 -5.86982e+00
       H -1.24450e+01 -1.92182e+01 -6.78749e+00
       O -1.92330e+01 -6.58374e+00  2.70881e+01
       H -1.91907e+01 -6.94194e+00  2.61405e+01
       H -2.00263e+01 -7.05903e+00  2.74124e+01
       O  9.79553e+00 -7.50099e+00 -1.25104e+01
       H  9.27566e+00 -8.27511e+00 -1.22081e+01
       H  9.93160e+00 -6.99935e+00 -1.16437e+01
       O -6.83845e+00  6.55161e+00 -7.70624e+00
       H -7.32737e+00  6.65711e+00 -6.93784e+00
       H -5.93309e+00  6.63069e+00 -7.44019e+00
       O -3.62897e+00 -4.18017e+00 -3.02329e+01
       H -4.04158e+00 -3.32263e+00 -3.01779e+01
       H -4.11735e+00 -4.73207e+00 -2.95834e+01
       O -3.15010e+00 -1.51748e+01 -7.02043e+00
       H -3.60672e+00 -1.54627e+01 -7.86005e+00
       H -2.87449e+00 -1.60374e+01 -6.64390e+00
       O -2.10780e+00 -1.46682e+01 -2.64622e+01
       H -1.17719e+00 -1.45610e+01 -2.61517e+01
       H -2.08045e+00 -1.46407e+01 -2.74364e+01
       O -5.83156e-01 -6.60921e+00 -1.49501e+01
       H -7.18291e-01 -6.34704e+00 -1.40309e+01
       H  1.64297e-01 -6.08539e+00 -1.51834e+01
       O -2.96390e+00  2.57282e+01 -1.28466e+01
       H -2.69043e+00  2.66400e+01 -1.26183e+01
       H -3.58052e+00  2.58551e+01 -1.36411e+01
       O -3.70458e+00 -2.19465e+01 -9.21405e+00
       H -2.74322e+00 -2.17579e+01 -8.97914e+00
       H -3.52578e+00 -2.27761e+01 -9.67950e+00
       O -2.68111e+00  1.14463e+01 -1.16048e+01
       H -3.65996e+00  1.12198e+01 -1.16355e+01
       H -2.65673e+00  1.22138e+01 -1.10171e+01
       O -8.40527e+00 -1.87830e+01 -2.57628e+01
       H -8.63662e+00 -1.85668e+01 -2.66849e+01
       H -7.49153e+00 -1.91303e+01 -2.58751e+01
       O -2.55413e+01 -1.29580e+01 -1.54155e+01
       H -2.46986e+01 -1.33958e+01 -1.57208e+01
       H -2.57740e+01 -1.35678e+01 -1.46673e+01
       O -2.03335e+01 -1.88813e+01 -1.95875e+01
       H -2.05890e+01 -1.79715e+01 -1.95183e+01
       H -2.11446e+01 -1.92428e+01 -1.92646e+01
       O  1.17519e+01  2.51005e+01 -1.17488e+01
       H  1.09293e+01  2.54724e+01 -1.21229e+01
       H  1.24475e+01  2.55448e+01 -1.22239e+01
       O -1.15976e+01  2.02216e+01 -1.74876e+01
       H -1.15179e+01  2.07621e+01 -1.82686e+01
       H -1.07878e+01  2.04191e+01 -1.69631e+01
       O  2.22794e+01 -2.45321e+01  1.27150e+01
       H  2.20547e+01 -2.50613e+01  1.18817e+01
       H  2.14603e+01 -2.40075e+01  1.26520e+01
       O -6.92326e+00 -9.18340e+00 -2.29010e+01
       H -6.31471e+00 -8.61429e+00 -2.33309e+01
       H -6.46951e+00 -9.31546e+00 -2.21025e+01
       O  1.75048e+01  2.99709e+01 -4.56767e+00
       H  1.84648e+01  2.99178e+01 -4.42161e+00
       H  1.73982e+01  3.06224e+01 -5.34075e+00
       O -2.25015e+01 -1.11648e+01 -8.70483e+00
       H -2.23203e+01 -1.17462e+01 -7.93486e+00
       H -2.16792e+01 -1.05710e+01 -8.86955e+00
       O -2.74601e+01  1.43457e-01 -8.89013e+00
       H -2.80592e+01 -6.06648e-01 -8.50199e+00
       H -2.81255e+01  8.02082e-01 -9.15240e+00
       O -7.95647e+00 -7.76181e+00 -1.14366e+01
       H -8.41340e+00 -6.89404e+00 -1.11997e+01
       H -8.76639e+00 -8.36727e+00 -1.12607e+01
       O -8.05268e+00  1.21401e+01  1.78063e+01
       H -7.61999e+00  1.19522e+01  1.86684e+01
       H -9.02442e+00  1.20194e+01  1.79242e+01
       O  2.41714e+00  2.30993e+01 -6.71298e+00
       H  1.46005e+00 -2.42020e+01 -6.61638e+00
       H  2.75683e+00  2.31492e+01 -5.78704e+00
       O -2.17009e+01 -1.75915e+01 -7.93289e+00
       H -2.08721e+01 -1.75959e+01 -8.48838e+00
       H -2.13444e+01 -1.77345e+01 -7.02951e+00
       O -1.88068e+01  2.03914e+01 -1.03463e+01
       H -1.84115e+01  2.12353e+01 -1.05843e+01
       H -1.84298e+01  1.98143e+01 -1.10810e+01
       O -1.48418e+01 -1.32351e+01 -9.30118e+00
       H -1.42810e+01 -1.34386e+01 -1.00506e+01
       H -1.43513e+01 -1.25259e+01 -8.89805e+00
       O -7.88325e-01 -3.58698e+00 -1.64093e+01
       H -5.28726e-01 -4.55888e+00 -1.65914e+01
       H -4.88795e-01 -3.13245e+00 -1.72435e+01
       O -6.19987e+00 -1.13376e+01 -2.49506e+01
       H -6.41745e+00 -1.09908e+01 -2.40142e+01
       H -5.40584e+00 -1.19197e+01 -2.48127e+01
       O -4.51322e+00 -2.22084e+01 -1.72499e+01
       H -4.95703e+00 -2.17791e+01 -1.80859e+01
       H -3.73916e+00 -2.25819e+01 -1.76839e+01
       O  1.91042e+01 -1.51384e+01 -8.78514e+00
       H  1.89655e+01 -1.53557e+01 -9.74227e+00
       H  2.00615e+01 -1.50908e+01 -8.74323e+00
       O -1.30111e+01 -9.47710e+00 -2.15231e+01
       H -1.30369e+01 -9.48302e+00 -2.25492e+01
       H -1.38672e+01 -9.15006e+00 -2.12901e+01
       O -2.77287e+01 -1.01144e+01 -1.86789e+01
       H -2.85168e+01 -1.07189e+01 -1.84962e+01
       H -2.71350e+01 -1.00376e+01 -1.78745e+01
       O -1.84401e+00 -1.00756e+01 -1.86387e+00
       H -2.68150e+00 -1.05293e+01 -1.80742e+00