6
# CELL(abcABC): 1000.00000  1000.00000  1000.00000    90.00000    90.00000    90.00000  Step:         455  Bead:       0 positions{angstrom}  cell{angstrom}
       C -6.85532e-01  3.09652e+00 -5.49875e-01
       H -1.14928e+00  3.66768e+00 -1.34389e+00
       H  1.19775e-01  3.72743e+00 -1.65079e-01
       H -2.74098e-01  2.16388e+00 -9.04893e-01
       O -1.56804e+00  2.87163e+00  4.64560e-01
       H -2.14742e+00  2.80124e+00  1.27840e+00
