4
# CELL(abcABC): 1000.00000  1000.00000  1000.00000    90.00000    90.00000    90.00000  Step:           0  Bead:       0 positions{angstrom}  cell{angstrom}
       O -3.16331e+00  1.05847e+00  3.54859e-01
       H -2.70517e+00  1.98782e-01  4.22875e-01
       H -2.80111e+00  1.65231e+00  1.01673e+00
       H -3.66727e+00  1.41794e+00 -3.86784e-01
4
# CELL(abcABC): 1000.00000  1000.00000  1000.00000    90.00000    90.00000    90.00000  Step:           1  Bead:       0 positions{angstrom}  cell{angstrom}
       O -3.16154e+00  1.05873e+00  3.54357e-01
       H -2.71596e+00  1.92860e-01  4.26727e-01
       H -2.80126e+00  1.65131e+00  1.01742e+00
       H -3.68446e+00  1.42079e+00 -3.83348e-01
4
# CELL(abcABC): 1000.00000  1000.00000  1000.00000    90.00000    90.00000    90.00000  Step:           2  Bead:       0 positions{angstrom}  cell{angstrom}
       O -3.15969e+00  1.05891e+00  3.53906e-01
       H -2.72906e+00  1.89715e-01  4.30340e-01
       H -2.80038e+00  1.64967e+00  1.01727e+00
       H -3.70152e+00  1.42265e+00 -3.79666e-01
4
# CELL(abcABC): 1000.00000  1000.00000  1000.00000    90.00000    90.00000    90.00000  Step:           3  Bead:       0 positions{angstrom}  cell{angstrom}
       O -3.15769e+00  1.05911e+00  3.53413e-01
       H -2.74351e+00  1.87596e-01  4.35070e-01
       H -2.80023e+00  1.64863e+00  1.01710e+00
       H -3.71909e+00  1.42264e+00 -3.76404e-01
4
# CELL(abcABC): 1000.00000  1000.00000  1000.00000    90.00000    90.00000    90.00000  Step:           4  Bead:       0 positions{angstrom}  cell{angstrom}
       O -3.15562e+00  1.05938e+00  3.53008e-01
       H -2.75975e+00  1.85939e-01  4.38149e-01
       H -2.79984e+00  1.64792e+00  1.01603e+00
       H -3.73609e+00  1.42068e+00 -3.71972e-01
4
# CELL(abcABC): 1000.00000  1000.00000  1000.00000    90.00000    90.00000    90.00000  Step:           5  Bead:       0 positions{angstrom}  cell{angstrom}
       O -3.15341e+00  1.05961e+00  3.52622e-01
       H -2.77796e+00  1.85287e-01  4.40532e-01
       H -2.80037e+00  1.64821e+00  1.01573e+00
       H -3.75238e+00  1.41743e+00 -3.67935e-01
4
# CELL(abcABC): 1000.00000  1000.00000  1000.00000    90.00000    90.00000    90.00000  Step:           6  Bead:       0 positions{angstrom}  cell{angstrom}
       O -3.15110e+00  1.06004e+00  3.52224e-01
       H -2.79682e+00  1.85021e-01  4.41715e-01
       H -2.80171e+00  1.64679e+00  1.01438e+00
       H -3.76882e+00  1.41227e+00 -3.61439e-01
4
# CELL(abcABC): 1000.00000  1000.00000  1000.00000    90.00000    90.00000    90.00000  Step:           7  Bead:       0 positions{angstrom}  cell{angstrom}
       O -3.14890e+00  1.06055e+00  3.51542e-01
       H -2.81446e+00  1.83980e-01  4.44126e-01
       H -2.80320e+00  1.64505e+00  1.01412e+00
       H -3.78457e+00  1.40704e+00 -3.52763e-01
4
# CELL(abcABC): 1000.00000  1000.00000  1000.00000    90.00000    90.00000    90.00000  Step:           8  Bead:       0 positions{angstrom}  cell{angstrom}
       O -3.14690e+00  1.06127e+00  3.50785e-01
       H -2.83093e+00  1.81469e-01  4.45990e-01
       H -2.80346e+00  1.64249e+00  1.01381e+00
       H -3.79960e+00  1.40070e+00 -3.42316e-01
4
# CELL(abcABC): 1000.00000  1000.00000  1000.00000    90.00000    90.00000    90.00000  Step:           9  Bead:       0 positions{angstrom}  cell{angstrom}
       O -3.14509e+00  1.06228e+00  3.49741e-01
       H -2.84689e+00  1.76240e-01  4.49211e-01
       H -2.80226e+00  1.64025e+00  1.01499e+00
       H -3.81363e+00  1.39206e+00 -3.30142e-01
4
# CELL(abcABC): 1000.00000  1000.00000  1000.00000    90.00000    90.00000    90.00000  Step:          10  Bead:       0 positions{angstrom}  cell{angstrom}
       O -3.14343e+00  1.06342e+00  3.48652e-01
       H -2.86210e+00  1.69226e-01  4.51951e-01
       H -2.80036e+00  1.63882e+00  1.01640e+00
       H -3.82658e+00  1.38249e+00 -3.17000e-01
4
# CELL(abcABC): 1000.00000  1000.00000  1000.00000    90.00000    90.00000    90.00000  Step:          11  Bead:       0 positions{angstrom}  cell{angstrom}
       O -3.14193e+00  1.06471e+00  3.47545e-01
       H -2.87641e+00  1.61676e-01  4.53664e-01
       H -2.79918e+00  1.63714e+00  1.01834e+00
       H -3.83731e+00  1.37117e+00 -3.03074e-01
4
# CELL(abcABC): 1000.00000  1000.00000  1000.00000    90.00000    90.00000    90.00000  Step:          12  Bead:       0 positions{angstrom}  cell{angstrom}
       O -3.14072e+00  1.06616e+00  3.46369e-01
       H -2.88876e+00  1.53414e-01  4.55309e-01
       H -2.79753e+00  1.63420e+00  1.02016e+00
       H -3.84584e+00  1.35936e+00 -2.87893e-01
4
# CELL(abcABC): 1000.00000  1000.00000  1000.00000    90.00000    90.00000    90.00000  Step:          13  Bead:       0 positions{angstrom}  cell{angstrom}
       O -3.13973e+00  1.06765e+00  3.45052e-01
       H -2.90045e+00  1.46144e-01  4.57416e-01
       H -2.79404e+00  1.63111e+00  1.02290e+00
       H -3.85341e+00  1.34609e+00 -2.71825e-01
4
# CELL(abcABC): 1000.00000  1000.00000  1000.00000    90.00000    90.00000    90.00000  Step:          14  Bead:       0 positions{angstrom}  cell{angstrom}
       O -3.13893e+00  1.06907e+00  3.43604e-01
       H -2.91028e+00  1.39853e-01  4.60147e-01
       H -2.78956e+00  1.62857e+00  1.02636e+00
       H -3.86071e+00  1.33232e+00 -2.55026e-01
4
# CELL(abcABC): 1000.00000  1000.00000  1000.00000    90.00000    90.00000    90.00000  Step:          15  Bead:       0 positions{angstrom}  cell{angstrom}
       O -3.13816e+00  1.07028e+00  3.41883e-01
       H -2.92170e+00  1.35094e-01  4.65215e-01
       H -2.78542e+00  1.62641e+00  1.03048e+00
       H -3.86558e+00  1.32010e+00 -2.36903e-01
4
# CELL(abcABC): 1000.00000  1000.00000  1000.00000    90.00000    90.00000    90.00000  Step:          16  Bead:       0 positions{angstrom}  cell{angstrom}
       O -3.13749e+00  1.07125e+00  3.40154e-01
       H -2.93182e+00  1.32543e-01  4.70084e-01
       H -2.78142e+00  1.62505e+00  1.03475e+00
       H -3.87016e+00  1.30853e+00 -2.18589e-01
4
# CELL(abcABC): 1000.00000  1000.00000  1000.00000    90.00000    90.00000    90.00000  Step:          17  Bead:       0 positions{angstrom}  cell{angstrom}
       O -3.13671e+00  1.07204e+00  3.38468e-01
       H -2.94102e+00  1.33302e-01  4.75255e-01
       H -2.77874e+00  1.62392e+00  1.03766e+00
       H -3.87595e+00  1.29644e+00 -1.99912e-01
4
# CELL(abcABC): 1000.00000  1000.00000  1000.00000    90.00000    90.00000    90.00000  Step:          18  Bead:       0 positions{angstrom}  cell{angstrom}
       O -3.13584e+00  1.07254e+00  3.36877e-01
       H -2.95099e+00  1.37635e-01  4.80644e-01
       H -2.77547e+00  1.62226e+00  1.03972e+00
       H -3.88307e+00  1.28576e+00 -1.82104e-01
4
# CELL(abcABC): 1000.00000  1000.00000  1000.00000    90.00000    90.00000    90.00000  Step:          19  Bead:       0 positions{angstrom}  cell{angstrom}
       O -3.13498e+00  1.07293e+00  3.35403e-01
       H -2.96014e+00  1.44008e-01  4.86525e-01
       H -2.77363e+00  1.61940e+00  1.04004e+00
       H -3.88954e+00  1.27604e+00 -1.64913e-01
4
# CELL(abcABC): 1000.00000  1000.00000  1000.00000    90.00000    90.00000    90.00000  Step:          20  Bead:       0 positions{angstrom}  cell{angstrom}
       O -3.13400e+00  1.07325e+00  3.34147e-01
       H -2.96858e+00  1.52150e-01  4.91040e-01
       H -2.77341e+00  1.61611e+00  1.03944e+00
       H -3.89673e+00  1.26616e+00 -1.48895e-01
4
# CELL(abcABC): 1000.00000  1000.00000  1000.00000    90.00000    90.00000    90.00000  Step:          21  Bead:       0 positions{angstrom}  cell{angstrom}
       O -3.13302e+00  1.07350e+00  3.33133e-01
       H -2.97658e+00  1.59973e-01  4.94442e-01
       H -2.77215e+00  1.61306e+00  1.03874e+00
       H -3.90562e+00  1.25739e+00 -1.35490e-01
4
# CELL(abcABC): 1000.00000  1000.00000  1000.00000    90.00000    90.00000    90.00000  Step:          22  Bead:       0 positions{angstrom}  cell{angstrom}
       O -3.13204e+00  1.07367e+00  3.32384e-01
       H -2.98461e+00  1.65939e-01  4.98938e-01
       H -2.76911e+00  1.61012e+00  1.03544e+00
       H -3.91612e+00  1.25165e+00 -1.24803e-01
4
# CELL(abcABC): 1000.00000  1000.00000  1000.00000    90.00000    90.00000    90.00000  Step:          23  Bead:       0 positions{angstrom}  cell{angstrom}
       O -3.13109e+00  1.07387e+00  3.31974e-01
       H -2.99122e+00  1.70549e-01  5.03115e-01
       H -2.76524e+00  1.60781e+00  1.03175e+00
       H -3.92853e+00  1.24624e+00 -1.18776e-01
4
# CELL(abcABC): 1000.00000  1000.00000  1000.00000    90.00000    90.00000    90.00000  Step:          24  Bead:       0 positions{angstrom}  cell{angstrom}
       O -3.13021e+00  1.07403e+00  3.31688e-01
       H -2.99586e+00  1.71603e-01  5.07541e-01
       H -2.76077e+00  1.60697e+00  1.02775e+00
       H -3.94238e+00  1.24347e+00 -1.14672e-01
4
# CELL(abcABC): 1000.00000  1000.00000  1000.00000    90.00000    90.00000    90.00000  Step:          25  Bead:       0 positions{angstrom}  cell{angstrom}
       O -3.12938e+00  1.07434e+00  3.31394e-01
       H -2.99912e+00  1.69022e-01  5.13112e-01
       H -2.75625e+00  1.60603e+00  1.02355e+00
       H -3.95678e+00  1.24207e+00 -1.11382e-01
4
# CELL(abcABC): 1000.00000  1000.00000  1000.00000    90.00000    90.00000    90.00000  Step:          26  Bead:       0 positions{angstrom}  cell{angstrom}
       O -3.12868e+00  1.07475e+00  3.31124e-01
       H -3.00102e+00  1.63697e-01  5.18215e-01
       H -2.75087e+00  1.60554e+00  1.01900e+00
       H -3.97143e+00  1.24131e+00 -1.07637e-01
4
# CELL(abcABC): 1000.00000  1000.00000  1000.00000    90.00000    90.00000    90.00000  Step:          27  Bead:       0 positions{angstrom}  cell{angstrom}
       O -3.12825e+00  1.07511e+00  3.30906e-01
       H -3.00182e+00  1.58215e-01  5.22688e-01
       H -2.74478e+00  1.60506e+00  1.01413e+00
       H -3.98347e+00  1.24159e+00 -1.03781e-01
4
# CELL(abcABC): 1000.00000  1000.00000  1000.00000    90.00000    90.00000    90.00000  Step:          28  Bead:       0 positions{angstrom}  cell{angstrom}
       O -3.12798e+00  1.07537e+00  3.30640e-01
       H -3.00252e+00  1.51048e-01  5.26826e-01
       H -2.73731e+00  1.60568e+00  1.00969e+00
       H -3.99454e+00  1.24409e+00 -9.92480e-02
4
# CELL(abcABC): 1000.00000  1000.00000  1000.00000    90.00000    90.00000    90.00000  Step:          29  Bead:       0 positions{angstrom}  cell{angstrom}
       O -3.12797e+00  1.07540e+00  3.30405e-01
       H -3.00148e+00  1.45137e-01  5.29102e-01
       H -2.72998e+00  1.60725e+00  1.00540e+00
       H -4.00308e+00  1.24784e+00 -9.35221e-02
4
# CELL(abcABC): 1000.00000  1000.00000  1000.00000    90.00000    90.00000    90.00000  Step:          30  Bead:       0 positions{angstrom}  cell{angstrom}
       O -3.12820e+00  1.07511e+00  3.30163e-01
       H -2.99912e+00  1.42000e-01  5.31487e-01
       H -2.72219e+00  1.60966e+00  1.00158e+00
       H -4.00954e+00  1.25331e+00 -8.82471e-02
4
# CELL(abcABC): 1000.00000  1000.00000  1000.00000    90.00000    90.00000    90.00000  Step:          31  Bead:       0 positions{angstrom}  cell{angstrom}
       O -3.12881e+00  1.07444e+00  3.30028e-01
       H -2.99433e+00  1.41229e-01  5.33289e-01
       H -2.71328e+00  1.61393e+00  9.96928e-01
       H -4.01360e+00  1.26034e+00 -8.32403e-02
4
# CELL(abcABC): 1000.00000  1000.00000  1000.00000    90.00000    90.00000    90.00000  Step:          32  Bead:       0 positions{angstrom}  cell{angstrom}
       O -3.12962e+00  1.07364e+00  3.29788e-01
       H -2.98968e+00  1.40871e-01  5.34870e-01
       H -2.70358e+00  1.61992e+00  9.92894e-01
       H -4.01509e+00  1.26745e+00 -7.69754e-02
4
# CELL(abcABC): 1000.00000  1000.00000  1000.00000    90.00000    90.00000    90.00000  Step:          33  Bead:       0 positions{angstrom}  cell{angstrom}
       O -3.13061e+00  1.07278e+00  3.29554e-01
       H -2.98493e+00  1.42067e-01  5.36803e-01
       H -2.69364e+00  1.62492e+00  9.88223e-01
       H -4.01409e+00  1.27497e+00 -7.05295e-02
4
# CELL(abcABC): 1000.00000  1000.00000  1000.00000    90.00000    90.00000    90.00000  Step:          34  Bead:       0 positions{angstrom}  cell{angstrom}
       O -3.13162e+00  1.07181e+00  3.29573e-01
       H -2.97919e+00  1.45081e-01  5.37643e-01
       H -2.68602e+00  1.62900e+00  9.82304e-01
       H -4.01144e+00  1.28318e+00 -6.57547e-02
4
# CELL(abcABC): 1000.00000  1000.00000  1000.00000    90.00000    90.00000    90.00000  Step:          35  Bead:       0 positions{angstrom}  cell{angstrom}
       O -3.13278e+00  1.07073e+00  3.29777e-01
       H -2.97127e+00  1.49549e-01  5.36781e-01
       H -2.68033e+00  1.63336e+00  9.75241e-01
       H -4.00654e+00  1.29146e+00 -6.10651e-02
4
# CELL(abcABC): 1000.00000  1000.00000  1000.00000    90.00000    90.00000    90.00000  Step:          36  Bead:       0 positions{angstrom}  cell{angstrom}
       O -3.13407e+00  1.06955e+00  3.30200e-01
       H -2.96267e+00  1.54934e-01  5.34451e-01
       H -2.67537e+00  1.63821e+00  9.65406e-01
       H -3.99960e+00  1.30006e+00 -5.56142e-02
4
# CELL(abcABC): 1000.00000  1000.00000  1000.00000    90.00000    90.00000    90.00000  Step:          37  Bead:       0 positions{angstrom}  cell{angstrom}
       O -3.13550e+00  1.06845e+00  3.30714e-01
       H -2.95297e+00  1.61281e-01  5.33020e-01
       H -2.67075e+00  1.64162e+00  9.53171e-01
       H -3.99128e+00  1.30773e+00 -5.01058e-02
4
# CELL(abcABC): 1000.00000  1000.00000  1000.00000    90.00000    90.00000    90.00000  Step:          38  Bead:       0 positions{angstrom}  cell{angstrom}
       O -3.13683e+00  1.06743e+00  3.31581e-01
       H -2.94379e+00  1.66745e-01  5.29654e-01
       H -2.66668e+00  1.64321e+00  9.38961e-01
       H -3.98342e+00  1.31688e+00 -4.62971e-02
4
# CELL(abcABC): 1000.00000  1000.00000  1000.00000    90.00000    90.00000    90.00000  Step:          39  Bead:       0 positions{angstrom}  cell{angstrom}
       O -3.13839e+00  1.06664e+00  3.32502e-01
       H -2.93333e+00  1.70204e-01  5.26177e-01
       H -2.66241e+00  1.64322e+00  9.24429e-01
       H -3.97339e+00  1.32591e+00 -4.29042e-02
4
# CELL(abcABC): 1000.00000  1000.00000  1000.00000    90.00000    90.00000    90.00000  Step:          40  Bead:       0 positions{angstrom}  cell{angstrom}
       O -3.14005e+00  1.06592e+00  3.33363e-01
       H -2.92232e+00  1.71999e-01  5.23091e-01
       H -2.65761e+00  1.64338e+00  9.10886e-01
       H -3.96281e+00  1.33544e+00 -3.99372e-02
4
# CELL(abcABC): 1000.00000  1000.00000  1000.00000    90.00000    90.00000    90.00000  Step:          41  Bead:       0 positions{angstrom}  cell{angstrom}
       O -3.14175e+00  1.06525e+00  3.34272e-01
       H -2.91119e+00  1.72630e-01  5.19003e-01
       H -2.65154e+00  1.64433e+00  8.97515e-01
       H -3.95299e+00  1.34445e+00 -3.69072e-02
4
# CELL(abcABC): 1000.00000  1000.00000  1000.00000    90.00000    90.00000    90.00000  Step:          42  Bead:       0 positions{angstrom}  cell{angstrom}
       O -3.14358e+00  1.06478e+00  3.35323e-01
       H -2.89830e+00  1.69591e-01  5.13964e-01
       H -2.64427e+00  1.64599e+00  8.84740e-01
       H -3.94409e+00  1.35335e+00 -3.57856e-02
4
# CELL(abcABC): 1000.00000  1000.00000  1000.00000    90.00000    90.00000    90.00000  Step:          43  Bead:       0 positions{angstrom}  cell{angstrom}
       O -3.14538e+00  1.06425e+00  3.36487e-01
       H -2.88562e+00  1.66198e-01  5.07795e-01
       H -2.63576e+00  1.64980e+00  8.72659e-01
       H -3.93676e+00  1.36126e+00 -3.60020e-02
4
# CELL(abcABC): 1000.00000  1000.00000  1000.00000    90.00000    90.00000    90.00000  Step:          44  Bead:       0 positions{angstrom}  cell{angstrom}
       O -3.14709e+00  1.06374e+00  3.37767e-01
       H -2.87291e+00  1.61628e-01  5.00103e-01
       H -2.62613e+00  1.65392e+00  8.60564e-01
       H -3.93203e+00  1.36981e+00 -3.65369e-02
4
# CELL(abcABC): 1000.00000  1000.00000  1000.00000    90.00000    90.00000    90.00000  Step:          45  Bead:       0 positions{angstrom}  cell{angstrom}
       O -3.14859e+00  1.06320e+00  3.39242e-01
       H -2.86122e+00  1.57470e-01  4.90730e-01
       H -2.61490e+00  1.65792e+00  8.48026e-01
       H -3.93109e+00  1.37851e+00 -3.80427e-02
4
# CELL(abcABC): 1000.00000  1000.00000  1000.00000    90.00000    90.00000    90.00000  Step:          46  Bead:       0 positions{angstrom}  cell{angstrom}
       O -3.15000e+00  1.06262e+00  3.40895e-01
       H -2.85029e+00  1.54865e-01  4.79841e-01
       H -2.60307e+00  1.66128e+00  8.35223e-01
       H -3.93139e+00  1.38702e+00 -4.05867e-02
4
# CELL(abcABC): 1000.00000  1000.00000  1000.00000    90.00000    90.00000    90.00000  Step:          47  Bead:       0 positions{angstrom}  cell{angstrom}
       O -3.15125e+00  1.06185e+00  3.42819e-01
       H -2.84015e+00  1.53353e-01  4.68114e-01
       H -2.59060e+00  1.66479e+00  8.21594e-01
       H -3.93419e+00  1.39719e+00 -4.57762e-02
4
# CELL(abcABC): 1000.00000  1000.00000  1000.00000    90.00000    90.00000    90.00000  Step:          48  Bead:       0 positions{angstrom}  cell{angstrom}
       O -3.15234e+00  1.06112e+00  3.44872e-01
       H -2.83043e+00  1.52398e-01  4.55633e-01
       H -2.57790e+00  1.66852e+00  8.07083e-01
       H -3.93928e+00  1.40611e+00 -5.13691e-02
4
# CELL(abcABC): 1000.00000  1000.00000  1000.00000    90.00000    90.00000    90.00000  Step:          49  Bead:       0 positions{angstrom}  cell{angstrom}
       O -3.15335e+00  1.06035e+00  3.46934e-01
       H -2.82163e+00  1.52712e-01  4.42742e-01
       H -2.56404e+00  1.67128e+00  7.92379e-01
       H -3.94598e+00  1.41527e+00 -5.64995e-02
4
# CELL(abcABC): 1000.00000  1000.00000  1000.00000    90.00000    90.00000    90.00000  Step:          50  Bead:       0 positions{angstrom}  cell{angstrom}
       O -3.15406e+00  1.05965e+00  3.49198e-01
       H -2.81421e+00  1.54878e-01  4.28652e-01
       H -2.55226e+00  1.67230e+00  7.77273e-01
       H -3.95383e+00  1.42320e+00 -6.32510e-02
4
# CELL(abcABC): 1000.00000  1000.00000  1000.00000    90.00000    90.00000    90.00000  Step:          51  Bead:       0 positions{angstrom}  cell{angstrom}
       O -3.15469e+00  1.05898e+00  3.51550e-01
       H -2.80824e+00  1.58150e-01  4.13319e-01
       H -2.54136e+00  1.67253e+00  7.61519e-01
       H -3.96076e+00  1.43033e+00 -6.94936e-02
4
# CELL(abcABC): 1000.00000  1000.00000  1000.00000    90.00000    90.00000    90.00000  Step:          52  Bead:       0 positions{angstrom}  cell{angstrom}
       O -3.15523e+00  1.05848e+00  3.54054e-01
       H -2.80371e+00  1.62373e-01  3.97313e-01
       H -2.53140e+00  1.67109e+00  7.44175e-01
       H -3.96676e+00  1.43542e+00 -7.58924e-02
4
# CELL(abcABC): 1000.00000  1000.00000  1000.00000    90.00000    90.00000    90.00000  Step:          53  Bead:       0 positions{angstrom}  cell{angstrom}
       O -3.15575e+00  1.05807e+00  3.56529e-01
       H -2.79957e+00  1.67847e-01  3.79843e-01
       H -2.52232e+00  1.67018e+00  7.27191e-01
       H -3.97171e+00  1.43741e+00 -8.07133e-02
4
# CELL(abcABC): 1000.00000  1000.00000  1000.00000    90.00000    90.00000    90.00000  Step:          54  Bead:       0 positions{angstrom}  cell{angstrom}
       O -3.15625e+00  1.05788e+00  3.58703e-01
       H -2.79629e+00  1.72627e-01  3.63054e-01
       H -2.51415e+00  1.66930e+00  7.10903e-01
       H -3.97520e+00  1.43639e+00 -8.21607e-02
4
# CELL(abcABC): 1000.00000  1000.00000  1000.00000    90.00000    90.00000    90.00000  Step:          55  Bead:       0 positions{angstrom}  cell{angstrom}
       O -3.15682e+00  1.05789e+00  3.60770e-01
       H -2.79424e+00  1.77331e-01  3.46790e-01
       H -2.50628e+00  1.66804e+00  6.95407e-01
       H -3.97602e+00  1.43290e+00 -8.32038e-02
4
# CELL(abcABC): 1000.00000  1000.00000  1000.00000    90.00000    90.00000    90.00000  Step:          56  Bead:       0 positions{angstrom}  cell{angstrom}
       O -3.15751e+00  1.05804e+00  3.62735e-01
       H -2.79049e+00  1.81694e-01  3.31002e-01
       H -2.49891e+00  1.66619e+00  6.79099e-01
       H -3.97614e+00  1.42804e+00 -8.22932e-02
4
# CELL(abcABC): 1000.00000  1000.00000  1000.00000    90.00000    90.00000    90.00000  Step:          57  Bead:       0 positions{angstrom}  cell{angstrom}
       O -3.15827e+00  1.05831e+00  3.64532e-01
       H -2.78551e+00  1.85828e-01  3.15706e-01
       H -2.49279e+00  1.66379e+00  6.64239e-01
       H -3.97534e+00  1.42189e+00 -8.06620e-02
4
# CELL(abcABC): 1000.00000  1000.00000  1000.00000    90.00000    90.00000    90.00000  Step:          58  Bead:       0 positions{angstrom}  cell{angstrom}
       O -3.15917e+00  1.05878e+00  3.66202e-01
       H -2.77971e+00  1.88333e-01  3.00304e-01
       H -2.48628e+00  1.66157e+00  6.50679e-01
       H -3.97331e+00  1.41414e+00 -7.82098e-02
4
# CELL(abcABC): 1000.00000  1000.00000  1000.00000    90.00000    90.00000    90.00000  Step:          59  Bead:       0 positions{angstrom}  cell{angstrom}
       O -3.16020e+00  1.05932e+00  3.67624e-01
       H -2.77334e+00  1.90305e-01  2.85141e-01
       H -2.47931e+00  1.66023e+00  6.39539e-01
       H -3.97030e+00  1.40504e+00 -7.44879e-02
4
# CELL(abcABC): 1000.00000  1000.00000  1000.00000    90.00000    90.00000    90.00000  Step:          60  Bead:       0 positions{angstrom}  cell{angstrom}
       O -3.16131e+00  1.05997e+00  3.68968e-01
       H -2.76855e+00  1.91631e-01  2.70296e-01
       H -2.47149e+00  1.65867e+00  6.27711e-01
       H -3.96530e+00  1.39486e+00 -6.91394e-02
4
# CELL(abcABC): 1000.00000  1000.00000  1000.00000    90.00000    90.00000    90.00000  Step:          61  Bead:       0 positions{angstrom}  cell{angstrom}
       O -3.16251e+00  1.06071e+00  3.70225e-01
       H -2.76365e+00  1.92562e-01  2.55534e-01
       H -2.46248e+00  1.65723e+00  6.15473e-01
       H -3.96015e+00  1.38376e+00 -6.20966e-02
4
# CELL(abcABC): 1000.00000  1000.00000  1000.00000    90.00000    90.00000    90.00000  Step:          62  Bead:       0 positions{angstrom}  cell{angstrom}
       O -3.16356e+00  1.06152e+00  3.71516e-01
       H -2.76063e+00  1.93276e-01  2.40779e-01
       H -2.45507e+00  1.65549e+00  6.03530e-01
       H -3.95394e+00  1.37188e+00 -5.58902e-02
4
# CELL(abcABC): 1000.00000  1000.00000  1000.00000    90.00000    90.00000    90.00000  Step:          63  Bead:       0 positions{angstrom}  cell{angstrom}
       O -3.16439e+00  1.06217e+00  3.72568e-01
       H -2.75866e+00  1.96047e-01  2.27083e-01
       H -2.44867e+00  1.65312e+00  5.92183e-01
       H -3.94901e+00  1.36106e+00 -4.75393e-02
4
# CELL(abcABC): 1000.00000  1000.00000  1000.00000    90.00000    90.00000    90.00000  Step:          64  Bead:       0 positions{angstrom}  cell{angstrom}
       O -3.16504e+00  1.06274e+00  3.73505e-01
       H -2.75703e+00  2.00406e-01  2.15059e-01
       H -2.44282e+00  1.65067e+00  5.81633e-01
       H -3.94621e+00  1.35023e+00 -3.98392e-02
4
# CELL(abcABC): 1000.00000  1000.00000  1000.00000    90.00000    90.00000    90.00000  Step:          65  Bead:       0 positions{angstrom}  cell{angstrom}
       O -3.16542e+00  1.06312e+00  3.74401e-01
       H -2.75786e+00  2.06707e-01  2.02682e-01
       H -2.43735e+00  1.64969e+00  5.71709e-01
       H -3.94491e+00  1.33876e+00 -3.17600e-02
4
# CELL(abcABC): 1000.00000  1000.00000  1000.00000    90.00000    90.00000    90.00000  Step:          66  Bead:       0 positions{angstrom}  cell{angstrom}
       O -3.16549e+00  1.06329e+00  3.75153e-01
       H -2.76040e+00  2.16653e-01  1.91710e-01
       H -2.43298e+00  1.64751e+00  5.62884e-01
       H -3.94563e+00  1.32830e+00 -2.39066e-02
4
# CELL(abcABC): 1000.00000  1000.00000  1000.00000    90.00000    90.00000    90.00000  Step:          67  Bead:       0 positions{angstrom}  cell{angstrom}
       O -3.16515e+00  1.06345e+00  3.75863e-01
       H -2.76402e+00  2.26059e-01  1.80503e-01
       H -2.42940e+00  1.64584e+00  5.55410e-01
       H -3.95088e+00  1.31805e+00 -1.64920e-02
4
# CELL(abcABC): 1000.00000  1000.00000  1000.00000    90.00000    90.00000    90.00000  Step:          68  Bead:       0 positions{angstrom}  cell{angstrom}
       O -3.16453e+00  1.06352e+00  3.76686e-01
       H -2.76797e+00  2.34626e-01  1.69390e-01
       H -2.42677e+00  1.64486e+00  5.47214e-01
       H -3.95948e+00  1.30939e+00 -1.02434e-02
4
# CELL(abcABC): 1000.00000  1000.00000  1000.00000    90.00000    90.00000    90.00000  Step:          69  Bead:       0 positions{angstrom}  cell{angstrom}
       O -3.16356e+00  1.06370e+00  3.77295e-01
       H -2.77284e+00  2.40155e-01  1.60103e-01
       H -2.42602e+00  1.64477e+00  5.40817e-01
       H -3.97075e+00  1.30104e+00 -4.23047e-03
4
# CELL(abcABC): 1000.00000  1000.00000  1000.00000    90.00000    90.00000    90.00000  Step:          70  Bead:       0 positions{angstrom}  cell{angstrom}
       O -3.16252e+00  1.06378e+00  3.77864e-01
       H -2.77752e+00  2.44039e-01  1.49946e-01
       H -2.42606e+00  1.64648e+00  5.35070e-01
       H -3.98247e+00  1.29415e+00  2.64154e-03
4
# CELL(abcABC): 1000.00000  1000.00000  1000.00000    90.00000    90.00000    90.00000  Step:          71  Bead:       0 positions{angstrom}  cell{angstrom}
       O -3.16128e+00  1.06400e+00  3.78445e-01
       H -2.78279e+00  2.44108e-01  1.38363e-01
       H -2.42736e+00  1.64884e+00  5.29820e-01
       H -3.99565e+00  1.28834e+00  1.02511e-02
4
# CELL(abcABC): 1000.00000  1000.00000  1000.00000    90.00000    90.00000    90.00000  Step:          72  Bead:       0 positions{angstrom}  cell{angstrom}
       O -3.15997e+00  1.06415e+00  3.78896e-01
       H -2.78751e+00  2.41791e-01  1.27073e-01
       H -2.42905e+00  1.65264e+00  5.26284e-01
       H -4.00998e+00  1.28438e+00  1.79090e-02
4
# CELL(abcABC): 1000.00000  1000.00000  1000.00000    90.00000    90.00000    90.00000  Step:          73  Bead:       0 positions{angstrom}  cell{angstrom}
       O -3.15858e+00  1.06436e+00  3.79308e-01
       H -2.79215e+00  2.37080e-01  1.15806e-01
       H -2.43117e+00  1.65810e+00  5.23752e-01
       H -4.02534e+00  1.28035e+00  2.51684e-02
4
# CELL(abcABC): 1000.00000  1000.00000  1000.00000    90.00000    90.00000    90.00000  Step:          74  Bead:       0 positions{angstrom}  cell{angstrom}
       O -3.15721e+00  1.06449e+00  3.79738e-01
       H -2.79635e+00  2.30952e-01  1.03676e-01
       H -2.43365e+00  1.66474e+00  5.21007e-01
       H -4.04033e+00  1.27774e+00  3.32269e-02
4
# CELL(abcABC): 1000.00000  1000.00000  1000.00000    90.00000    90.00000    90.00000  Step:          75  Bead:       0 positions{angstrom}  cell{angstrom}
       O -3.15572e+00  1.06460e+00  3.79995e-01
       H -2.80105e+00  2.23299e-01  9.17729e-02
       H -2.43707e+00  1.67173e+00  5.19924e-01
       H -4.05596e+00  1.27666e+00  4.21249e-02
4
# CELL(abcABC): 1000.00000  1000.00000  1000.00000    90.00000    90.00000    90.00000  Step:          76  Bead:       0 positions{angstrom}  cell{angstrom}
       O -3.15436e+00  1.06448e+00  3.79921e-01
       H -2.80510e+00  2.16424e-01  8.21326e-02
       H -2.44093e+00  1.67950e+00  5.19788e-01
       H -4.06960e+00  1.27774e+00  5.30885e-02
4
# CELL(abcABC): 1000.00000  1000.00000  1000.00000    90.00000    90.00000    90.00000  Step:          77  Bead:       0 positions{angstrom}  cell{angstrom}
       O -3.15300e+00  1.06419e+00  3.79573e-01
       H -2.80948e+00  2.11870e-01  7.40189e-02
       H -2.44556e+00  1.68798e+00  5.21056e-01
       H -4.08221e+00  1.27846e+00  6.54515e-02
4
# CELL(abcABC): 1000.00000  1000.00000  1000.00000    90.00000    90.00000    90.00000  Step:          78  Bead:       0 positions{angstrom}  cell{angstrom}
       O -3.15168e+00  1.06376e+00  3.79140e-01
       H -2.81525e+00  2.08604e-01  6.66870e-02
       H -2.44965e+00  1.69715e+00  5.22779e-01
       H -4.09319e+00  1.27929e+00  7.79266e-02
4
# CELL(abcABC): 1000.00000  1000.00000  1000.00000    90.00000    90.00000    90.00000  Step:          79  Bead:       0 positions{angstrom}  cell{angstrom}
       O -3.15056e+00  1.06331e+00  3.78427e-01
       H -2.82177e+00  2.08154e-01  6.24461e-02
       H -2.45275e+00  1.70507e+00  5.24876e-01
       H -4.10139e+00  1.27894e+00  9.13970e-02
4
# CELL(abcABC): 1000.00000  1000.00000  1000.00000    90.00000    90.00000    90.00000  Step:          80  Bead:       0 positions{angstrom}  cell{angstrom}
       O -3.14968e+00  1.06280e+00  3.77371e-01
       H -2.82777e+00  2.10208e-01  5.99822e-02
       H -2.45578e+00  1.71185e+00  5.28466e-01
       H -4.10630e+00  1.27818e+00  1.07039e-01
4
# CELL(abcABC): 1000.00000  1000.00000  1000.00000    90.00000    90.00000    90.00000  Step:          81  Bead:       0 positions{angstrom}  cell{angstrom}
       O -3.14904e+00  1.06214e+00  3.76166e-01
       H -2.83122e+00  2.14984e-01  5.84790e-02
       H -2.45977e+00  1.71923e+00  5.32566e-01
       H -4.10904e+00  1.27662e+00  1.23562e-01
4
# CELL(abcABC): 1000.00000  1000.00000  1000.00000    90.00000    90.00000    90.00000  Step:          82  Bead:       0 positions{angstrom}  cell{angstrom}
       O -3.14858e+00  1.06165e+00  3.74690e-01
       H -2.83316e+00  2.20409e-01  5.90216e-02
       H -2.46395e+00  1.72378e+00  5.36792e-01
       H -4.11029e+00  1.27439e+00  1.42229e-01
4
# CELL(abcABC): 1000.00000  1000.00000  1000.00000    90.00000    90.00000    90.00000  Step:          83  Bead:       0 positions{angstrom}  cell{angstrom}
       O -3.14834e+00  1.06120e+00  3.73075e-01
       H -2.83389e+00  2.26735e-01  6.09230e-02
       H -2.46869e+00  1.72695e+00  5.41116e-01
       H -4.10857e+00  1.27207e+00  1.61641e-01
4
# CELL(abcABC): 1000.00000  1000.00000  1000.00000    90.00000    90.00000    90.00000  Step:          84  Bead:       0 positions{angstrom}  cell{angstrom}
       O -3.14828e+00  1.06091e+00  3.71394e-01
       H -2.83202e+00  2.31898e-01  6.23203e-02
       H -2.47499e+00  1.72849e+00  5.45327e-01
       H -4.10510e+00  1.26997e+00  1.82700e-01
4
# CELL(abcABC): 1000.00000  1000.00000  1000.00000    90.00000    90.00000    90.00000  Step:          85  Bead:       0 positions{angstrom}  cell{angstrom}