4
# CELL(abcABC): 1000.00000  1000.00000  1000.00000    90.00000    90.00000    90.00000  Step:           0  Bead:       0 positions{angstrom}  cell{angstrom}
       O -3.11963e+00  1.06518e+00  3.49007e-01
       H -3.12173e+00  7.00972e-01  1.24785e+00
       H -3.30243e+00  4.03994e-01 -2.80062e-01
       H -3.44275e+00  2.05793e+00  1.77962e-01
4
# CELL(abcABC): 1000.00000  1000.00000  1000.00000    90.00000    90.00000    90.00000  Step:           1  Bead:       0 positions{angstrom}  cell{angstrom}
       O -3.11798e+00  1.06562e+00  3.48593e-01
       H -3.13144e+00  6.94441e-01  1.25112e+00
       H -3.30245e+00  4.02209e-01 -2.80436e-01
       H -3.45915e+00  2.05921e+00  1.81637e-01
4
# CELL(abcABC): 1000.00000  1000.00000  1000.00000    90.00000    90.00000    90.00000  Step:           2  Bead:       0 positions{angstrom}  cell{angstrom}
       O -3.11651e+00  1.06634e+00  3.48464e-01
       H -3.14133e+00  6.89748e-01  1.25233e+00
       H -3.30119e+00  3.98442e-01 -2.83677e-01
       H -3.47399e+00  2.05628e+00  1.85719e-01
4
# CELL(abcABC): 1000.00000  1000.00000  1000.00000    90.00000    90.00000    90.00000  Step:           3  Bead:       0 positions{angstrom}  cell{angstrom}
       O -3.11508e+00  1.06734e+00  3.48543e-01
       H -3.15066e+00  6.85663e-01  1.25245e+00
       H -3.30042e+00  3.94502e-01 -2.88556e-01
       H -3.48806e+00  2.04840e+00  1.89220e-01
4
# CELL(abcABC): 1000.00000  1000.00000  1000.00000    90.00000    90.00000    90.00000  Step:           4  Bead:       0 positions{angstrom}  cell{angstrom}
       O -3.11378e+00  1.06858e+00  3.48961e-01
       H -3.16017e+00  6.82234e-01  1.24847e+00
       H -3.29905e+00  3.90818e-01 -2.95394e-01
       H -3.50057e+00  2.03584e+00  1.93409e-01
4
# CELL(abcABC): 1000.00000  1000.00000  1000.00000    90.00000    90.00000    90.00000  Step:           5  Bead:       0 positions{angstrom}  cell{angstrom}
       O -3.11249e+00  1.06982e+00  3.49620e-01
       H -3.17037e+00  6.80565e-01  1.24146e+00
       H -3.29817e+00  3.88847e-01 -3.01877e-01
       H -3.51173e+00  2.01981e+00  1.96440e-01
4
# CELL(abcABC): 1000.00000  1000.00000  1000.00000    90.00000    90.00000    90.00000  Step:           6  Bead:       0 positions{angstrom}  cell{angstrom}
       O -3.11119e+00  1.07118e+00  3.50442e-01
       H -3.18044e+00  6.80634e-01  1.23137e+00
       H -3.29758e+00  3.86579e-01 -3.09299e-01
       H -3.52281e+00  2.00040e+00  2.00897e-01
4
# CELL(abcABC): 1000.00000  1000.00000  1000.00000    90.00000    90.00000    90.00000  Step:           7  Bead:       0 positions{angstrom}  cell{angstrom}
       O -3.11004e+00  1.07242e+00  3.51093e-01
       H -3.18900e+00  6.81749e-01  1.22148e+00
       H -3.29665e+00  3.85949e-01 -3.15103e-01
       H -3.53345e+00  1.98035e+00  2.06258e-01
4
# CELL(abcABC): 1000.00000  1000.00000  1000.00000    90.00000    90.00000    90.00000  Step:           8  Bead:       0 positions{angstrom}  cell{angstrom}
       O -3.10906e+00  1.07357e+00  3.51722e-01
       H -3.19652e+00  6.83433e-01  1.21094e+00
       H -3.29404e+00  3.86784e-01 -3.20194e-01
       H -3.54415e+00  1.95956e+00  2.11911e-01
4
# CELL(abcABC): 1000.00000  1000.00000  1000.00000    90.00000    90.00000    90.00000  Step:           9  Bead:       0 positions{angstrom}  cell{angstrom}
       O -3.10818e+00  1.07466e+00  3.52051e-01
       H -3.20393e+00  6.84249e-01  1.20277e+00
       H -3.28957e+00  3.90322e-01 -3.22982e-01
       H -3.55518e+00  1.93785e+00  2.17648e-01
4
# CELL(abcABC): 1000.00000  1000.00000  1000.00000    90.00000    90.00000    90.00000  Step:          10  Bead:       0 positions{angstrom}  cell{angstrom}
       O -3.10733e+00  1.07550e+00  3.52280e-01
       H -3.21108e+00  6.84556e-01  1.19599e+00
       H -3.28407e+00  3.96947e-01 -3.24784e-01
       H -3.56707e+00  1.91766e+00  2.22596e-01
4
# CELL(abcABC): 1000.00000  1000.00000  1000.00000    90.00000    90.00000    90.00000  Step:          11  Bead:       0 positions{angstrom}  cell{angstrom}
       O -3.10646e+00  1.07613e+00  3.52410e-01
       H -3.21778e+00  6.84727e-01  1.19075e+00
       H -3.27902e+00  4.05277e-01 -3.25542e-01
       H -3.57920e+00  1.89910e+00  2.26518e-01
4
# CELL(abcABC): 1000.00000  1000.00000  1000.00000    90.00000    90.00000    90.00000  Step:          12  Bead:       0 positions{angstrom}  cell{angstrom}
       O -3.10569e+00  1.07660e+00  3.52382e-01
       H -3.22290e+00  6.83609e-01  1.18853e+00
       H -3.27332e+00  4.13779e-01 -3.26282e-01
       H -3.59202e+00  1.88417e+00  2.29925e-01
4
# CELL(abcABC): 1000.00000  1000.00000  1000.00000    90.00000    90.00000    90.00000  Step:          13  Bead:       0 positions{angstrom}  cell{angstrom}
       O -3.10493e+00  1.07689e+00  3.52136e-01
       H -3.22758e+00  6.81911e-01  1.18996e+00
       H -3.26572e+00  4.22884e-01 -3.26486e-01
       H -3.60694e+00  1.87226e+00  2.32614e-01
4
# CELL(abcABC): 1000.00000  1000.00000  1000.00000    90.00000    90.00000    90.00000  Step:          14  Bead:       0 positions{angstrom}  cell{angstrom}
       O -3.10419e+00  1.07697e+00  3.51721e-01
       H -3.23040e+00  6.78936e-01  1.19478e+00
       H -3.25711e+00  4.32571e-01 -3.26806e-01
       H -3.62452e+00  1.86426e+00  2.34699e-01
4
# CELL(abcABC): 1000.00000  1000.00000  1000.00000    90.00000    90.00000    90.00000  Step:          15  Bead:       0 positions{angstrom}  cell{angstrom}
       O -3.10334e+00  1.07680e+00  3.51051e-01
       H -3.23454e+00  6.74815e-01  1.20385e+00
       H -3.24879e+00  4.41932e-01 -3.27714e-01
       H -3.64213e+00  1.86163e+00  2.37158e-01
4
# CELL(abcABC): 1000.00000  1000.00000  1000.00000    90.00000    90.00000    90.00000  Step:          16  Bead:       0 positions{angstrom}  cell{angstrom}
       O -3.10253e+00  1.07648e+00  3.50466e-01
       H -3.23681e+00  6.70268e-01  1.21324e+00
       H -3.24051e+00  4.50742e-01 -3.30027e-01
       H -3.66097e+00  1.86245e+00  2.39366e-01
4
# CELL(abcABC): 1000.00000  1000.00000  1000.00000    90.00000    90.00000    90.00000  Step:          17  Bead:       0 positions{angstrom}  cell{angstrom}
       O -3.10167e+00  1.07614e+00  3.50073e-01
       H -3.23737e+00  6.66637e-01  1.22212e+00
       H -3.23329e+00  4.57951e-01 -3.35344e-01
       H -3.68134e+00  1.86429e+00  2.42051e-01
4
# CELL(abcABC): 1000.00000  1000.00000  1000.00000    90.00000    90.00000    90.00000  Step:          18  Bead:       0 positions{angstrom}  cell{angstrom}
       O -3.10085e+00  1.07576e+00  3.49949e-01
       H -3.23779e+00  6.64665e-01  1.22926e+00
       H -3.22508e+00  4.62583e-01 -3.42974e-01
       H -3.70211e+00  1.86778e+00  2.44507e-01
4
# CELL(abcABC): 1000.00000  1000.00000  1000.00000    90.00000    90.00000    90.00000  Step:          19  Bead:       0 positions{angstrom}  cell{angstrom}
       O -3.10027e+00  1.07551e+00  3.50114e-01
       H -3.23651e+00  6.63605e-01  1.23408e+00
       H -3.21770e+00  4.64097e-01 -3.53284e-01
       H -3.72008e+00  1.87126e+00  2.47387e-01
4
# CELL(abcABC): 1000.00000  1000.00000  1000.00000    90.00000    90.00000    90.00000  Step:          20  Bead:       0 positions{angstrom}  cell{angstrom}
       O -3.09987e+00  1.07542e+00  3.50628e-01
       H -3.23379e+00  6.64087e-01  1.23417e+00
       H -3.21121e+00  4.63658e-01 -3.64633e-01
       H -3.73562e+00  1.87262e+00  2.50477e-01
4
# CELL(abcABC): 1000.00000  1000.00000  1000.00000    90.00000    90.00000    90.00000  Step:          21  Bead:       0 positions{angstrom}  cell{angstrom}
       O -3.09979e+00  1.07545e+00  3.51450e-01
       H -3.23012e+00  6.64979e-01  1.22972e+00
       H -3.20288e+00  4.62453e-01 -3.75317e-01
       H -3.74891e+00  1.87244e+00  2.52568e-01
4
# CELL(abcABC): 1000.00000  1000.00000  1000.00000    90.00000    90.00000    90.00000  Step:          22  Bead:       0 positions{angstrom}  cell{angstrom}
       O -3.10005e+00  1.07553e+00  3.52517e-01
       H -3.22633e+00  6.65554e-01  1.22335e+00
       H -3.19191e+00  4.60909e-01 -3.86947e-01
       H -3.75951e+00  1.87219e+00  2.53628e-01
4
# CELL(abcABC): 1000.00000  1000.00000  1000.00000    90.00000    90.00000    90.00000  Step:          23  Bead:       0 positions{angstrom}  cell{angstrom}
       O -3.10065e+00  1.07571e+00  3.53818e-01
       H -3.22127e+00  6.66801e-01  1.21430e+00
       H -3.17930e+00  4.60035e-01 -3.96552e-01
       H -3.76766e+00  1.86889e+00  2.51641e-01
4
# CELL(abcABC): 1000.00000  1000.00000  1000.00000    90.00000    90.00000    90.00000  Step:          24  Bead:       0 positions{angstrom}  cell{angstrom}
       O -3.10158e+00  1.07592e+00  3.55048e-01
       H -3.21475e+00  6.66643e-01  1.20420e+00
       H -3.16538e+00  4.60992e-01 -4.03496e-01
       H -3.77329e+00  1.86482e+00  2.49145e-01
4
# CELL(abcABC): 1000.00000  1000.00000  1000.00000    90.00000    90.00000    90.00000  Step:          25  Bead:       0 positions{angstrom}  cell{angstrom}
       O -3.10277e+00  1.07634e+00  3.55992e-01
       H -3.20761e+00  6.64495e-01  1.19527e+00
       H -3.15082e+00  4.62391e-01 -4.07383e-01
       H -3.77619e+00  1.85882e+00  2.46989e-01
4
# CELL(abcABC): 1000.00000  1000.00000  1000.00000    90.00000    90.00000    90.00000  Step:          26  Bead:       0 positions{angstrom}  cell{angstrom}
       O -3.10420e+00  1.07699e+00  3.56621e-01
       H -3.19997e+00  6.60223e-01  1.18714e+00
       H -3.13500e+00  4.64743e-01 -4.08396e-01
       H -3.77685e+00  1.85042e+00  2.46153e-01
4
# CELL(abcABC): 1000.00000  1000.00000  1000.00000    90.00000    90.00000    90.00000  Step:          27  Bead:       0 positions{angstrom}  cell{angstrom}
       O -3.10596e+00  1.07777e+00  3.56929e-01
       H -3.19215e+00  6.55095e-01  1.18076e+00
       H -3.11827e+00  4.67486e-01 -4.06756e-01
       H -3.77342e+00  1.84047e+00  2.45997e-01
4
# CELL(abcABC): 1000.00000  1000.00000  1000.00000    90.00000    90.00000    90.00000  Step:          28  Bead:       0 positions{angstrom}  cell{angstrom}
       O -3.10786e+00  1.07867e+00  3.56812e-01
       H -3.18508e+00  6.46459e-01  1.17724e+00
       H -3.10018e+00  4.71468e-01 -4.02193e-01
       H -3.76855e+00  1.83077e+00  2.46819e-01
4
# CELL(abcABC): 1000.00000  1000.00000  1000.00000    90.00000    90.00000    90.00000  Step:          29  Bead:       0 positions{angstrom}  cell{angstrom}
       O -3.10991e+00  1.07962e+00  3.56394e-01
       H -3.17704e+00  6.36354e-01  1.17522e+00
       H -3.08239e+00  4.76242e-01 -3.95604e-01
       H -3.76177e+00  1.82108e+00  2.48873e-01
4
# CELL(abcABC): 1000.00000  1000.00000  1000.00000    90.00000    90.00000    90.00000  Step:          30  Bead:       0 positions{angstrom}  cell{angstrom}
       O -3.11205e+00  1.08048e+00  3.55712e-01
       H -3.16832e+00  6.25867e-01  1.17648e+00
       H -3.06434e+00  4.81417e-01 -3.87446e-01
       H -3.75459e+00  1.81276e+00  2.50292e-01
4
# CELL(abcABC): 1000.00000  1000.00000  1000.00000    90.00000    90.00000    90.00000  Step:          31  Bead:       0 positions{angstrom}  cell{angstrom}
       O -3.11435e+00  1.08117e+00  3.54985e-01
       H -3.15771e+00  6.14817e-01  1.17961e+00
       H -3.04531e+00  4.87646e-01 -3.79818e-01
       H -3.74772e+00  1.80656e+00  2.51060e-01
4
# CELL(abcABC): 1000.00000  1000.00000  1000.00000    90.00000    90.00000    90.00000  Step:          32  Bead:       0 positions{angstrom}  cell{angstrom}
       O -3.11660e+00  1.08185e+00  3.54117e-01
       H -3.14772e+00  6.01931e-01  1.18402e+00
       H -3.02541e+00  4.94534e-01 -3.71955e-01
       H -3.74184e+00  1.80188e+00  2.52568e-01
4
# CELL(abcABC): 1000.00000  1000.00000  1000.00000    90.00000    90.00000    90.00000  Step:          33  Bead:       0 positions{angstrom}  cell{angstrom}
       O -3.11877e+00  1.08248e+00  3.53336e-01
       H -3.13806e+00  5.89233e-01  1.18907e+00
       H -3.00481e+00  4.99236e-01 -3.65706e-01
       H -3.73770e+00  1.79985e+00  2.53663e-01
4
# CELL(abcABC): 1000.00000  1000.00000  1000.00000    90.00000    90.00000    90.00000  Step:          34  Bead:       0 positions{angstrom}  cell{angstrom}
       O -3.12069e+00  1.08292e+00  3.52982e-01
       H -3.12787e+00  5.78047e-01  1.19218e+00
       H -2.98568e+00  5.01906e-01 -3.62003e-01
       H -3.73651e+00  1.80130e+00  2.52478e-01
4
# CELL(abcABC): 1000.00000  1000.00000  1000.00000    90.00000    90.00000    90.00000  Step:          35  Bead:       0 positions{angstrom}  cell{angstrom}
       O -3.12252e+00  1.08307e+00  3.53039e-01
       H -3.11604e+00  5.69101e-01  1.19190e+00
       H -2.96745e+00  5.03972e-01 -3.60818e-01
       H -3.73761e+00  1.80578e+00  2.50668e-01
4
# CELL(abcABC): 1000.00000  1000.00000  1000.00000    90.00000    90.00000    90.00000  Step:          36  Bead:       0 positions{angstrom}  cell{angstrom}
       O -3.12424e+00  1.08286e+00  3.53547e-01
       H -3.10420e+00  5.62853e-01  1.18806e+00
       H -2.94883e+00  5.06073e-01 -3.63628e-01
       H -3.74078e+00  1.81333e+00  2.49252e-01
4
# CELL(abcABC): 1000.00000  1000.00000  1000.00000    90.00000    90.00000    90.00000  Step:          37  Bead:       0 positions{angstrom}  cell{angstrom}
       O -3.12589e+00  1.08242e+00  3.54332e-01
       H -3.09211e+00  5.60172e-01  1.18302e+00
       H -2.92958e+00  5.06896e-01 -3.69600e-01
       H -3.74583e+00  1.82222e+00  2.47795e-01
4
# CELL(abcABC): 1000.00000  1000.00000  1000.00000    90.00000    90.00000    90.00000  Step:          38  Bead:       0 positions{angstrom}  cell{angstrom}
       O -3.12729e+00  1.08169e+00  3.55575e-01
       H -3.08152e+00  5.59877e-01  1.17423e+00
       H -2.91030e+00  5.06760e-01 -3.77597e-01
       H -3.75357e+00  1.83417e+00  2.44864e-01
4
# CELL(abcABC): 1000.00000  1000.00000  1000.00000    90.00000    90.00000    90.00000  Step:          39  Bead:       0 positions{angstrom}  cell{angstrom}
       O -3.12877e+00  1.08084e+00  3.56860e-01
       H -3.07078e+00  5.61121e-01  1.16426e+00
       H -2.89093e+00  5.06531e-01 -3.85245e-01
       H -3.76018e+00  1.84660e+00  2.42085e-01
4
# CELL(abcABC): 1000.00000  1000.00000  1000.00000    90.00000    90.00000    90.00000  Step:          40  Bead:       0 positions{angstrom}  cell{angstrom}
       O -3.13024e+00  1.07975e+00  3.57944e-01
       H -3.06060e+00  5.64017e-01  1.15473e+00
       H -2.87190e+00  5.08362e-01 -3.90658e-01
       H -3.76602e+00  1.85927e+00  2.39829e-01
4
# CELL(abcABC): 1000.00000  1000.00000  1000.00000    90.00000    90.00000    90.00000  Step:          41  Bead:       0 positions{angstrom}  cell{angstrom}
       O -3.13168e+00  1.07848e+00  3.58811e-01
       H -3.05130e+00  5.68445e-01  1.14548e+00
       H -2.85314e+00  5.13052e-01 -3.94314e-01
       H -3.77122e+00  1.87029e+00  2.38963e-01
4
# CELL(abcABC): 1000.00000  1000.00000  1000.00000    90.00000    90.00000    90.00000  Step:          42  Bead:       0 positions{angstrom}  cell{angstrom}
       O -3.13322e+00  1.07727e+00  3.59437e-01
       H -3.04103e+00  5.70995e-01  1.13796e+00
       H -2.83520e+00  5.20583e-01 -3.95622e-01
       H -3.77490e+00  1.87942e+00  2.37852e-01
4
# CELL(abcABC): 1000.00000  1000.00000  1000.00000    90.00000    90.00000    90.00000  Step:          43  Bead:       0 positions{angstrom}  cell{angstrom}
       O -3.13477e+00  1.07599e+00  3.59699e-01
       H -3.03138e+00  5.73702e-01  1.13318e+00
       H -2.81834e+00  5.32331e-01 -3.94499e-01
       H -3.77688e+00  1.88524e+00  2.37349e-01
4
# CELL(abcABC): 1000.00000  1000.00000  1000.00000    90.00000    90.00000    90.00000  Step:          44  Bead:       0 positions{angstrom}  cell{angstrom}
       O -3.13632e+00  1.07481e+00  3.59548e-01
       H -3.02177e+00  5.74626e-01  1.13157e+00
       H -2.80261e+00  5.46355e-01 -3.91810e-01
       H -3.77763e+00  1.88909e+00  2.38674e-01
4
# CELL(abcABC): 1000.00000  1000.00000  1000.00000    90.00000    90.00000    90.00000  Step:          45  Bead:       0 positions{angstrom}  cell{angstrom}
       O -3.13781e+00  1.07375e+00  3.59061e-01
       H -3.01289e+00  5.74481e-01  1.13323e+00
       H -2.78732e+00  5.62069e-01 -3.88312e-01
       H -3.77808e+00  1.89036e+00  2.41241e-01
4
# CELL(abcABC): 1000.00000  1000.00000  1000.00000    90.00000    90.00000    90.00000  Step:          46  Bead:       0 positions{angstrom}  cell{angstrom}
       O -3.13940e+00  1.07283e+00  3.58277e-01
       H -3.00426e+00  5.73975e-01  1.13798e+00
       H -2.77307e+00  5.78784e-01 -3.84248e-01
       H -3.77577e+00  1.88877e+00  2.44875e-01
4
# CELL(abcABC): 1000.00000  1000.00000  1000.00000    90.00000    90.00000    90.00000  Step:          47  Bead:       0 positions{angstrom}  cell{angstrom}
       O -3.14102e+00  1.07190e+00  3.57387e-01
       H -2.99580e+00  5.72703e-01  1.14568e+00
       H -2.75935e+00  5.97047e-01 -3.80713e-01
       H -3.77229e+00  1.88650e+00  2.47766e-01
4
# CELL(abcABC): 1000.00000  1000.00000  1000.00000    90.00000    90.00000    90.00000  Step:          48  Bead:       0 positions{angstrom}  cell{angstrom}
       O -3.14266e+00  1.07114e+00  3.56381e-01
       H -2.98718e+00  5.70552e-01  1.15518e+00
       H -2.74601e+00  6.16697e-01 -3.78308e-01
       H -3.76809e+00  1.88111e+00  2.51830e-01
4
# CELL(abcABC): 1000.00000  1000.00000  1000.00000    90.00000    90.00000    90.00000  Step:          49  Bead:       0 positions{angstrom}  cell{angstrom}
       O -3.14440e+00  1.07041e+00  3.55288e-01
       H -2.97901e+00  5.68811e-01  1.16537e+00
       H -2.73150e+00  6.36368e-01 -3.76850e-01
       H -3.76330e+00  1.87476e+00  2.57537e-01
4
# CELL(abcABC): 1000.00000  1000.00000  1000.00000    90.00000    90.00000    90.00000  Step:          50  Bead:       0 positions{angstrom}  cell{angstrom}
       O -3.14597e+00  1.06972e+00  3.54440e-01
       H -2.97190e+00  5.68748e-01  1.17402e+00
       H -2.71849e+00  6.55271e-01 -3.76858e-01
       H -3.75840e+00  1.86675e+00  2.62354e-01
4
# CELL(abcABC): 1000.00000  1000.00000  1000.00000    90.00000    90.00000    90.00000  Step:          51  Bead:       0 positions{angstrom}  cell{angstrom}
       O -3.14754e+00  1.06896e+00  3.53839e-01
       H -2.96612e+00  5.70296e-01  1.17996e+00
       H -2.70546e+00  6.74214e-01 -3.78861e-01
       H -3.75236e+00  1.85840e+00  2.67952e-01
4
# CELL(abcABC): 1000.00000  1000.00000  1000.00000    90.00000    90.00000    90.00000  Step:          52  Bead:       0 positions{angstrom}  cell{angstrom}
       O -3.14902e+00  1.06816e+00  3.53629e-01
       H -2.96185e+00  5.73877e-01  1.18301e+00
       H -2.69235e+00  6.92264e-01 -3.83873e-01
       H -3.74618e+00  1.84937e+00  2.73251e-01
4
# CELL(abcABC): 1000.00000  1000.00000  1000.00000    90.00000    90.00000    90.00000  Step:          53  Bead:       0 positions{angstrom}  cell{angstrom}
       O -3.15041e+00  1.06717e+00  3.53655e-01
       H -2.95817e+00  5.80222e-01  1.18204e+00
       H -2.67942e+00  7.11560e-01 -3.89693e-01
       H -3.74074e+00  1.83958e+00  2.79624e-01
4
# CELL(abcABC): 1000.00000  1000.00000  1000.00000    90.00000    90.00000    90.00000  Step:          54  Bead:       0 positions{angstrom}  cell{angstrom}
       O -3.15161e+00  1.06604e+00  3.53633e-01
       H -2.95566e+00  5.87628e-01  1.17936e+00
       H -2.66706e+00  7.31571e-01 -3.95618e-01
       H -3.73651e+00  1.83002e+00  2.88571e-01
4
# CELL(abcABC): 1000.00000  1000.00000  1000.00000    90.00000    90.00000    90.00000  Step:          55  Bead:       0 positions{angstrom}  cell{angstrom}
       O -3.15266e+00  1.06470e+00  3.53719e-01
       H -2.95463e+00  5.96689e-01  1.17522e+00
       H -2.65497e+00  7.51824e-01 -4.01177e-01
       H -3.73301e+00  1.82206e+00  2.96912e-01
4
# CELL(abcABC): 1000.00000  1000.00000  1000.00000    90.00000    90.00000    90.00000  Step:          56  Bead:       0 positions{angstrom}  cell{angstrom}
       O -3.15355e+00  1.06307e+00  3.53856e-01
       H -2.95199e+00  6.06925e-01  1.17027e+00
       H -2.64368e+00  7.72025e-01 -4.07565e-01
       H -3.73275e+00  1.81740e+00  3.06072e-01
4
# CELL(abcABC): 1000.00000  1000.00000  1000.00000    90.00000    90.00000    90.00000  Step:          57  Bead:       0 positions{angstrom}  cell{angstrom}
       O -3.15422e+00  1.06119e+00  3.53895e-01
       H -2.94790e+00  6.17963e-01  1.16545e+00
       H -2.63435e+00  7.92024e-01 -4.12059e-01
       H -3.73561e+00  1.81630e+00  3.14776e-01
4
# CELL(abcABC): 1000.00000  1000.00000  1000.00000    90.00000    90.00000    90.00000  Step:          58  Bead:       0 positions{angstrom}  cell{angstrom}
       O -3.15478e+00  1.05918e+00  3.53798e-01
       H -2.94234e+00  6.27765e-01  1.16114e+00
       H -2.62560e+00  8.12191e-01 -4.14589e-01
       H -3.74104e+00  1.81814e+00  3.23149e-01
4
# CELL(abcABC): 1000.00000  1000.00000  1000.00000    90.00000    90.00000    90.00000  Step:          59  Bead:       0 positions{angstrom}  cell{angstrom}
       O -3.15528e+00  1.05705e+00  3.53380e-01
       H -2.93501e+00  6.36588e-01  1.15855e+00
       H -2.61742e+00  8.32907e-01 -4.13932e-01
       H -3.74863e+00  1.82245e+00  3.31723e-01
4
# CELL(abcABC): 1000.00000  1000.00000  1000.00000    90.00000    90.00000    90.00000  Step:          60  Bead:       0 positions{angstrom}  cell{angstrom}
       O -3.15578e+00  1.05497e+00  3.52772e-01
       H -2.92748e+00  6.43549e-01  1.15830e+00
       H -2.60909e+00  8.52862e-01 -4.13305e-01
       H -3.75650e+00  1.82850e+00  3.40988e-01
4
# CELL(abcABC): 1000.00000  1000.00000  1000.00000    90.00000    90.00000    90.00000  Step:          61  Bead:       0 positions{angstrom}  cell{angstrom}
       O -3.15642e+00  1.05302e+00  3.51953e-01
       H -2.91763e+00  6.48329e-01  1.16024e+00
       H -2.59992e+00  8.72251e-01 -4.12457e-01
       H -3.76536e+00  1.83531e+00  3.51198e-01
4
# CELL(abcABC): 1000.00000  1000.00000  1000.00000    90.00000    90.00000    90.00000  Step:          62  Bead:       0 positions{angstrom}  cell{angstrom}
       O -3.15708e+00  1.05130e+00  3.51052e-01
       H -2.90707e+00  6.50757e-01  1.16387e+00
       H -2.59230e+00  8.90672e-01 -4.10611e-01
       H -3.77309e+00  1.84186e+00  3.60037e-01
4
# CELL(abcABC): 1000.00000  1000.00000  1000.00000    90.00000    90.00000    90.00000  Step:          63  Bead:       0 positions{angstrom}  cell{angstrom}
       O -3.15780e+00  1.04964e+00  3.49838e-01
       H -2.89488e+00  6.52998e-01  1.16939e+00
       H -2.58533e+00  9.07700e-01 -4.07560e-01
       H -3.78086e+00  1.84889e+00  3.70734e-01
4
# CELL(abcABC): 1000.00000  1000.00000  1000.00000    90.00000    90.00000    90.00000  Step:          64  Bead:       0 positions{angstrom}  cell{angstrom}
       O -3.15868e+00  1.04816e+00  3.48507e-01
       H -2.88045e+00  6.54914e-01  1.17632e+00
       H -2.57826e+00  9.23735e-01 -4.03335e-01
       H -3.78834e+00  1.85434e+00  3.80710e-01
4
# CELL(abcABC): 1000.00000  1000.00000  1000.00000    90.00000    90.00000    90.00000  Step:          65  Bead:       0 positions{angstrom}  cell{angstrom}
       O -3.15971e+00  1.04681e+00  3.47219e-01
       H -2.86622e+00  6.57516e-01  1.18137e+00
       H -2.57063e+00  9.40208e-01 -3.98396e-01
       H -3.79393e+00  1.85674e+00  3.91155e-01
4
# CELL(abcABC): 1000.00000  1000.00000  1000.00000    90.00000    90.00000    90.00000  Step:          66  Bead:       0 positions{angstrom}  cell{angstrom}
       O -3.16088e+00  1.04552e+00  3.45940e-01
       H -2.85197e+00  6.63323e-01  1.18537e+00
       H -2.56284e+00  9.54437e-01 -3.92517e-01
       H -3.79738e+00  1.85717e+00  4.01579e-01
4
# CELL(abcABC): 1000.00000  1000.00000  1000.00000    90.00000    90.00000    90.00000  Step:          67  Bead:       0 positions{angstrom}  cell{angstrom}
       O -3.16209e+00  1.04445e+00  3.44821e-01
       H -2.83774e+00  6.69356e-01  1.18614e+00
       H -2.55443e+00  9.68073e-01 -3.85739e-01
       H -3.80074e+00  1.85450e+00  4.11792e-01
4
# CELL(abcABC): 1000.00000  1000.00000  1000.00000    90.00000    90.00000    90.00000  Step:          68  Bead:       0 positions{angstrom}  cell{angstrom}
       O -3.16342e+00  1.04346e+00  3.44056e-01
       H -2.82348e+00  6.76399e-01  1.18382e+00
       H -2.54553e+00  9.81244e-01 -3.80416e-01
       H -3.80274e+00  1.85001e+00  4.20927e-01
4
# CELL(abcABC): 1000.00000  1000.00000  1000.00000    90.00000    90.00000    90.00000  Step:          69  Bead:       0 positions{angstrom}  cell{angstrom}
       O -3.16475e+00  1.04269e+00  3.43329e-01
       H -2.81043e+00  6.83151e-01  1.18032e+00
       H -2.53731e+00  9.94138e-01 -3.74100e-01
       H -3.80304e+00  1.84255e+00  4.29659e-01
4
# CELL(abcABC): 1000.00000  1000.00000  1000.00000    90.00000    90.00000    90.00000  Step:          70  Bead:       0 positions{angstrom}  cell{angstrom}
       O -3.16624e+00  1.04187e+00  3.42829e-01
       H -2.79801e+00  6.91588e-01  1.17316e+00
       H -2.52899e+00  1.00761e+00 -3.68110e-01
       H -3.80009e+00  1.83363e+00  4.38765e-01
4
# CELL(abcABC): 1000.00000  1000.00000  1000.00000    90.00000    90.00000    90.00000  Step:          71  Bead:       0 positions{angstrom}  cell{angstrom}
       O -3.16766e+00  1.04119e+00  3.42593e-01
       H -2.78732e+00  6.99705e-01  1.16239e+00
       H -2.52143e+00  1.02057e+00 -3.62660e-01
       H -3.79576e+00  1.82342e+00  4.47834e-01
4
# CELL(abcABC): 1000.00000  1000.00000  1000.00000    90.00000    90.00000    90.00000  Step:          72  Bead:       0 positions{angstrom}  cell{angstrom}
       O -3.16907e+00  1.04044e+00  3.42446e-01
       H -2.77719e+00  7.08399e-01  1.15057e+00
       H -2.51425e+00  1.03386e+00 -3.56570e-01
       H -3.79076e+00  1.81336e+00  4.55895e-01
4
# CELL(abcABC): 1000.00000  1000.00000  1000.00000    90.00000    90.00000    90.00000  Step:          73  Bead:       0 positions{angstrom}  cell{angstrom}
       O -3.17034e+00  1.03973e+00  3.42439e-01
       H -2.76782e+00  7.16742e-01  1.13836e+00
       H -2.50793e+00  1.04781e+00 -3.50603e-01
       H -3.78616e+00  1.80229e+00  4.62246e-01
4
# CELL(abcABC): 1000.00000  1000.00000  1000.00000    90.00000    90.00000    90.00000  Step:          74  Bead:       0 positions{angstrom}  cell{angstrom}
       O -3.17153e+00  1.03896e+00  3.42586e-01
       H -2.75845e+00  7.24448e-01  1.12580e+00
       H -2.50273e+00  1.06218e+00 -3.46014e-01
       H -3.78183e+00  1.79252e+00  4.67882e-01
4
# CELL(abcABC): 1000.00000  1000.00000  1000.00000    90.00000    90.00000    90.00000  Step:          75  Bead:       0 positions{angstrom}  cell{angstrom}
       O -3.17242e+00  1.03819e+00  3.42647e-01
       H -2.74944e+00  7.29935e-01  1.11488e+00
       H -2.49956e+00  1.07638e+00 -3.40890e-01
       H -3.77997e+00  1.78494e+00  4.72712e-01
4
# CELL(abcABC): 1000.00000  1000.00000  1000.00000    90.00000    90.00000    90.00000  Step:          76  Bead:       0 positions{angstrom}  cell{angstrom}
       O -3.17322e+00  1.03727e+00  3.42437e-01
       H -2.73916e+00  7.34035e-01  1.10824e+00
       H -2.49809e+00  1.09109e+00 -3.36056e-01
       H -3.77899e+00  1.78073e+00  4.77849e-01
4
# CELL(abcABC): 1000.00000  1000.00000  1000.00000    90.00000    90.00000    90.00000  Step:          77  Bead:       0 positions{angstrom}  cell{angstrom}
       O -3.17376e+00  1.03629e+00  3.42027e-01
       H -2.72845e+00  7.37282e-01  1.10519e+00
       H -2.49866e+00  1.10652e+00 -3.31212e-01
       H -3.78055e+00  1.77769e+00  4.82567e-01
4
# CELL(abcABC): 1000.00000  1000.00000  1000.00000    90.00000    90.00000    90.00000  Step:          78  Bead:       0 positions{angstrom}  cell{angstrom}
       O -3.17406e+00  1.03528e+00  3.41645e-01
       H -2.71861e+00  7.38167e-01  1.10462e+00
       H -2.49977e+00  1.12300e+00 -3.27551e-01
       H -3.78451e+00  1.77636e+00  4.85547e-01
4
# CELL(abcABC): 1000.00000  1000.00000  1000.00000    90.00000    90.00000    90.00000  Step:          79  Bead:       0 positions{angstrom}  cell{angstrom}
       O -3.17423e+00  1.03435e+00  3.41138e-01
       H -2.70950e+00  7.38090e-01  1.10824e+00
       H -2.50068e+00  1.13895e+00 -3.25255e-01
       H -3.78996e+00  1.77531e+00  4.87664e-01
4
# CELL(abcABC): 1000.00000  1000.00000  1000.00000    90.00000    90.00000    90.00000  Step:          80  Bead:       0 positions{angstrom}  cell{angstrom}
       O -3.17430e+00  1.03342e+00  3.40496e-01
       H -2.70067e+00  7.37187e-01  1.11388e+00
       H -2.50208e+00  1.15486e+00 -3.23148e-01
       H -3.79638e+00  1.77507e+00  4.90122e-01
4
# CELL(abcABC): 1000.00000  1000.00000  1000.00000    90.00000    90.00000    90.00000  Step:          81  Bead:       0 positions{angstrom}  cell{angstrom}
       O -3.17422e+00  1.03234e+00  3.39961e-01
       H -2.69104e+00  7.36495e-01  1.11979e+00
       H -2.50472e+00  1.17279e+00 -3.22137e-01
       H -3.80470e+00  1.77488e+00  4.91698e-01
4
# CELL(abcABC): 1000.00000  1000.00000  1000.00000    90.00000    90.00000    90.00000  Step:          82  Bead:       0 positions{angstrom}  cell{angstrom}
       O -3.17390e+00  1.03140e+00  3.39443e-01
       H -2.68264e+00  7.35002e-01  1.12626e+00
       H -2.50754e+00  1.18963e+00 -3.22466e-01
       H -3.81521e+00  1.77441e+00  4.93764e-01
4
# CELL(abcABC): 1000.00000  1000.00000  1000.00000    90.00000    90.00000    90.00000  Step:          83  Bead:       0 positions{angstrom}  cell{angstrom}
       O -3.17340e+00  1.03042e+00  3.39100e-01
       H -2.67666e+00  7.34111e-01  1.13193e+00
       H -2.51086e+00  1.20687e+00 -3.23962e-01
       H -3.82592e+00  1.77371e+00  4.95031e-01
4
# CELL(abcABC): 1000.00000  1000.00000  1000.00000    90.00000    90.00000    90.00000  Step:          84  Bead:       0 positions{angstrom}  cell{angstrom}
       O -3.17263e+00  1.02947e+00  3.39001e-01
       H -2.67243e+00  7.32949e-01  1.13456e+00
       H -2.51574e+00  1.22422e+00 -3.26549e-01
       H -3.83740e+00  1.77259e+00  4.96555e-01
4
# CELL(abcABC): 1000.00000  1000.00000  1000.00000    90.00000    90.00000    90.00000  Step:          85  Bead:       0 positions{angstrom}  cell{angstrom}