14
# CELL(abcABC): 1000.00000  1000.00000  1000.00000    90.00000    90.00000    90.00000  Step:          99  Bead:       0 positions{angstrom}  cell{angstrom}
       C -6.55265e-01  6.50389e-01  3.87777e-02
       C  3.26378e-01 -3.71083e-01  7.27528e-01
       C -1.90952e+00  4.34954e-02 -5.97479e-01
       C -8.13046e-01  1.95546e+00  8.03897e-01
       H -1.41888e+00  1.88111e+00  1.69826e+00
       H -1.26353e+00  2.74130e+00  2.24733e-01
       H  1.34698e-01  2.35077e+00  1.17104e+00
       H -1.60790e+00 -7.64279e-01 -1.32508e+00
       H -2.54592e+00  7.80063e-01 -1.10669e+00
       H -2.46586e+00 -4.81355e-01  1.45427e-01
       H  1.22982e+00 -5.75702e-02  8.37515e-01
       H  2.83257e-01 -1.27668e+00  1.80869e-01
       H -1.01692e-01 -5.45750e-01  1.70160e+00
       H -5.04914e-02  7.02679e-01 -8.22156e-01
