6
# CELL(abcABC): 1000.00000  1000.00000  1000.00000    90.00000    90.00000    90.00000  Step:         412  Bead:       0 positions{angstrom}  cell{angstrom}
       C -9.30101e-01  2.29900e+00 -1.64932e-01
       H -3.41355e-01  2.41477e+00 -1.04380e+00
       H -3.83926e-01  1.83638e+00  6.51883e-01
       H -1.75004e+00  1.60981e+00 -3.65470e-01
       O -1.34203e+00  3.64341e+00  8.77498e-02
       H -1.64905e+00  3.75167e+00  1.01616e+00
