4
# CELL(abcABC): 1000.00000  1000.00000  1000.00000    90.00000    90.00000    90.00000  Step:           0  Bead:       0 positions{angstrom}  cell{angstrom}
       O -3.18306e+00  1.07303e+00  3.58868e-01
       H -2.82826e+00  4.67015e-01  9.91625e-01
       H -2.75157e+00  1.86989e+00  5.17665e-01
       H -3.28016e+00  7.01116e-01 -5.20087e-01
4
# CELL(abcABC): 1000.00000  1000.00000  1000.00000    90.00000    90.00000    90.00000  Step:           1  Bead:       0 positions{angstrom}  cell{angstrom}
       O -3.18152e+00  1.07317e+00  3.58350e-01
       H -2.83764e+00  4.58075e-01  9.97057e-01
       H -2.74960e+00  1.87328e+00  5.18302e-01
       H -3.29714e+00  7.04414e-01 -5.17930e-01
4
# CELL(abcABC): 1000.00000  1000.00000  1000.00000    90.00000    90.00000    90.00000  Step:           2  Bead:       0 positions{angstrom}  cell{angstrom}
       O -3.18032e+00  1.07301e+00  3.57926e-01
       H -2.84690e+00  4.46494e-01  1.00479e+00
       H -2.74270e+00  1.88418e+00  5.17913e-01
       H -3.31392e+00  7.07702e-01 -5.18554e-01
4
# CELL(abcABC): 1000.00000  1000.00000  1000.00000    90.00000    90.00000    90.00000  Step:           3  Bead:       0 positions{angstrom}  cell{angstrom}
       O -3.17922e+00  1.07265e+00  3.57589e-01
       H -2.85578e+00  4.31815e-01  1.01528e+00
       H -2.73368e+00  1.90189e+00  5.16985e-01
       H -3.33140e+00  7.10281e-01 -5.22754e-01
4
# CELL(abcABC): 1000.00000  1000.00000  1000.00000    90.00000    90.00000    90.00000  Step:           4  Bead:       0 positions{angstrom}  cell{angstrom}
       O -3.17820e+00  1.07221e+00  3.57551e-01
       H -2.86552e+00  4.15216e-01  1.02453e+00
       H -2.72294e+00  1.92345e+00  5.14222e-01
       H -3.34873e+00  7.12374e-01 -5.28638e-01
4
# CELL(abcABC): 1000.00000  1000.00000  1000.00000    90.00000    90.00000    90.00000  Step:           5  Bead:       0 positions{angstrom}  cell{angstrom}
       O -3.17701e+00  1.07160e+00  3.57806e-01
       H -2.87706e+00  3.99052e-01  1.03235e+00
       H -2.71308e+00  1.94671e+00  5.10909e-01
       H -3.36592e+00  7.14968e-01 -5.37204e-01
4
# CELL(abcABC): 1000.00000  1000.00000  1000.00000    90.00000    90.00000    90.00000  Step:           6  Bead:       0 positions{angstrom}  cell{angstrom}
       O -3.17557e+00  1.07108e+00  3.58347e-01
       H -2.88976e+00  3.84505e-01  1.03729e+00
       H -2.70527e+00  1.96656e+00  5.04968e-01
       H -3.38388e+00  7.17832e-01 -5.44786e-01
4
# CELL(abcABC): 1000.00000  1000.00000  1000.00000    90.00000    90.00000    90.00000  Step:           7  Bead:       0 positions{angstrom}  cell{angstrom}
       O -3.17399e+00  1.07054e+00  3.58912e-01
       H -2.90229e+00  3.72011e-01  1.04109e+00
       H -2.69981e+00  1.98246e+00  4.98260e-01
       H -3.40181e+00  7.23088e-01 -5.50857e-01
4
# CELL(abcABC): 1000.00000  1000.00000  1000.00000    90.00000    90.00000    90.00000  Step:           8  Bead:       0 positions{angstrom}  cell{angstrom}
       O -3.17230e+00  1.07010e+00  3.59709e-01
       H -2.91507e+00  3.62109e-01  1.04148e+00
       H -2.69604e+00  1.99256e+00  4.89516e-01
       H -3.41967e+00  7.29843e-01 -5.55146e-01
4
# CELL(abcABC): 1000.00000  1000.00000  1000.00000    90.00000    90.00000    90.00000  Step:           9  Bead:       0 positions{angstrom}  cell{angstrom}
       O -3.17045e+00  1.06986e+00  3.60501e-01
       H -2.92882e+00  3.54212e-01  1.04018e+00
       H -2.69412e+00  1.99715e+00  4.80217e-01
       H -3.43716e+00  7.36932e-01 -5.57105e-01
4
# CELL(abcABC): 1000.00000  1000.00000  1000.00000    90.00000    90.00000    90.00000  Step:          10  Bead:       0 positions{angstrom}  cell{angstrom}
       O -3.16843e+00  1.06968e+00  3.61484e-01
       H -2.94319e+00  3.49255e-01  1.03536e+00
       H -2.69493e+00  1.99639e+00  4.69312e-01
       H -3.45412e+00  7.45629e-01 -5.56993e-01
4
# CELL(abcABC): 1000.00000  1000.00000  1000.00000    90.00000    90.00000    90.00000  Step:          11  Bead:       0 positions{angstrom}  cell{angstrom}
       O -3.16626e+00  1.06962e+00  3.62619e-01
       H -2.95768e+00  3.47859e-01  1.02683e+00
       H -2.69974e+00  1.98937e+00  4.57435e-01
       H -3.46930e+00  7.54955e-01 -5.54598e-01
4
# CELL(abcABC): 1000.00000  1000.00000  1000.00000    90.00000    90.00000    90.00000  Step:          12  Bead:       0 positions{angstrom}  cell{angstrom}
       O -3.16413e+00  1.06974e+00  3.63768e-01
       H -2.97081e+00  3.48720e-01  1.01622e+00
       H -2.70696e+00  1.97572e+00  4.44358e-01
       H -3.48265e+00  7.65875e-01 -5.49155e-01
4
# CELL(abcABC): 1000.00000  1000.00000  1000.00000    90.00000    90.00000    90.00000  Step:          13  Bead:       0 positions{angstrom}  cell{angstrom}
       O -3.16207e+00  1.06996e+00  3.64767e-01
       H -2.98337e+00  3.51970e-01  1.00498e+00
       H -2.71452e+00  1.95771e+00  4.31495e-01
       H -3.49525e+00  7.77021e-01 -5.40907e-01
4
# CELL(abcABC): 1000.00000  1000.00000  1000.00000    90.00000    90.00000    90.00000  Step:          14  Bead:       0 positions{angstrom}  cell{angstrom}
       O -3.16015e+00  1.07022e+00  3.65522e-01
       H -2.99367e+00  3.55888e-01  9.94398e-01
       H -2.72225e+00  1.93782e+00  4.19220e-01
       H -3.50766e+00  7.88841e-01 -5.30035e-01
4
# CELL(abcABC): 1000.00000  1000.00000  1000.00000    90.00000    90.00000    90.00000  Step:          15  Bead:       0 positions{angstrom}  cell{angstrom}
       O -3.15833e+00  1.07036e+00  3.65793e-01
       H -3.00475e+00  3.59327e-01  9.87305e-01
       H -2.73009e+00  1.91823e+00  4.08139e-01
       H -3.51763e+00  8.02843e-01 -5.16157e-01
4
# CELL(abcABC): 1000.00000  1000.00000  1000.00000    90.00000    90.00000    90.00000  Step:          16  Bead:       0 positions{angstrom}  cell{angstrom}
       O -3.15679e+00  1.07031e+00  3.65768e-01
       H -3.01342e+00  3.61665e-01  9.82113e-01
       H -2.73629e+00  1.90208e+00  3.98482e-01
       H -3.52727e+00  8.17403e-01 -5.00915e-01
4
# CELL(abcABC): 1000.00000  1000.00000  1000.00000    90.00000    90.00000    90.00000  Step:          17  Bead:       0 positions{angstrom}  cell{angstrom}
       O -3.15543e+00  1.07006e+00  3.65454e-01
       H -3.01993e+00  3.63145e-01  9.80031e-01
       H -2.74052e+00  1.89142e+00  3.89489e-01
       H -3.53809e+00  8.30636e-01 -4.84860e-01
4
# CELL(abcABC): 1000.00000  1000.00000  1000.00000    90.00000    90.00000    90.00000  Step:          18  Bead:       0 positions{angstrom}  cell{angstrom}
       O -3.15432e+00  1.06945e+00  3.64899e-01
       H -3.02599e+00  3.63835e-01  9.81364e-01
       H -2.73978e+00  1.88734e+00  3.82187e-01
       H -3.55038e+00  8.43746e-01 -4.70078e-01
4
# CELL(abcABC): 1000.00000  1000.00000  1000.00000    90.00000    90.00000    90.00000  Step:          19  Bead:       0 positions{angstrom}  cell{angstrom}
       O -3.15356e+00  1.06861e+00  3.64154e-01
       H -3.03021e+00  3.62745e-01  9.86432e-01
       H -2.73566e+00  1.88973e+00  3.76033e-01
       H -3.56239e+00  8.55690e-01 -4.57174e-01
4
# CELL(abcABC): 1000.00000  1000.00000  1000.00000    90.00000    90.00000    90.00000  Step:          20  Bead:       0 positions{angstrom}  cell{angstrom}
       O -3.15298e+00  1.06760e+00  3.63387e-01
       H -3.03301e+00  3.60805e-01  9.92995e-01
       H -2.72867e+00  1.89853e+00  3.71916e-01
       H -3.57574e+00  8.64831e-01 -4.47444e-01
4
# CELL(abcABC): 1000.00000  1000.00000  1000.00000    90.00000    90.00000    90.00000  Step:          21  Bead:       0 positions{angstrom}  cell{angstrom}
       O -3.15259e+00  1.06647e+00  3.62693e-01
       H -3.03505e+00  3.57558e-01  1.00070e+00
       H -2.71710e+00  1.91247e+00  3.70484e-01
       H -3.59153e+00  8.72128e-01 -4.42692e-01
4
# CELL(abcABC): 1000.00000  1000.00000  1000.00000    90.00000    90.00000    90.00000  Step:          22  Bead:       0 positions{angstrom}  cell{angstrom}
       O -3.15229e+00  1.06525e+00  3.62143e-01
       H -3.03720e+00  3.53246e-01  1.01097e+00
       H -2.70159e+00  1.92877e+00  3.69062e-01
       H -3.60965e+00  8.79454e-01 -4.42816e-01
4
# CELL(abcABC): 1000.00000  1000.00000  1000.00000    90.00000    90.00000    90.00000  Step:          23  Bead:       0 positions{angstrom}  cell{angstrom}
       O -3.15199e+00  1.06412e+00  3.61848e-01
       H -3.03843e+00  3.50066e-01  1.02143e+00
       H -2.68458e+00  1.94509e+00  3.69505e-01
       H -3.63020e+00  8.84306e-01 -4.49045e-01
4
# CELL(abcABC): 1000.00000  1000.00000  1000.00000    90.00000    90.00000    90.00000  Step:          24  Bead:       0 positions{angstrom}  cell{angstrom}
       O -3.15165e+00  1.06306e+00  3.61591e-01
       H -3.03851e+00  3.47170e-01  1.03183e+00
       H -2.66773e+00  1.95977e+00  3.71513e-01
       H -3.65236e+00  8.89398e-01 -4.57367e-01
4
# CELL(abcABC): 1000.00000  1000.00000  1000.00000    90.00000    90.00000    90.00000  Step:          25  Bead:       0 positions{angstrom}  cell{angstrom}
       O -3.15119e+00  1.06229e+00  3.61222e-01
       H -3.03826e+00  3.45176e-01  1.04233e+00
       H -2.65271e+00  1.96933e+00  3.74873e-01
       H -3.67491e+00  8.93914e-01 -4.65367e-01
4
# CELL(abcABC): 1000.00000  1000.00000  1000.00000    90.00000    90.00000    90.00000  Step:          26  Bead:       0 positions{angstrom}  cell{angstrom}
       O -3.15064e+00  1.06185e+00  3.60760e-01
       H -3.03782e+00  3.44963e-01  1.05078e+00
       H -2.63959e+00  1.97301e+00  3.79050e-01
       H -3.69726e+00  8.97523e-01 -4.70660e-01
4
# CELL(abcABC): 1000.00000  1000.00000  1000.00000    90.00000    90.00000    90.00000  Step:          27  Bead:       0 positions{angstrom}  cell{angstrom}
       O -3.15011e+00  1.06162e+00  3.60220e-01
       H -3.03749e+00  3.48484e-01  1.05677e+00
       H -2.62907e+00  1.96965e+00  3.83741e-01
       H -3.71640e+00  9.00987e-01 -4.72775e-01
4
# CELL(abcABC): 1000.00000  1000.00000  1000.00000    90.00000    90.00000    90.00000  Step:          28  Bead:       0 positions{angstrom}  cell{angstrom}
       O -3.14949e+00  1.06162e+00  3.59489e-01
       H -3.03823e+00  3.53302e-01  1.06062e+00
       H -2.62079e+00  1.96015e+00  3.89363e-01
       H -3.73387e+00  9.05714e-01 -4.70645e-01
4
# CELL(abcABC): 1000.00000  1000.00000  1000.00000    90.00000    90.00000    90.00000  Step:          29  Bead:       0 positions{angstrom}  cell{angstrom}
       O -3.14886e+00  1.06177e+00  3.58633e-01
       H -3.03837e+00  3.61150e-01  1.06101e+00
       H -2.61628e+00  1.94471e+00  3.95487e-01
       H -3.74815e+00  9.10944e-01 -4.63553e-01
4
# CELL(abcABC): 1000.00000  1000.00000  1000.00000    90.00000    90.00000    90.00000  Step:          30  Bead:       0 positions{angstrom}  cell{angstrom}
       O -3.14825e+00  1.06196e+00  3.57590e-01
       H -3.03822e+00  3.72308e-01  1.06034e+00
       H -2.61457e+00  1.92419e+00  4.02366e-01
       H -3.75981e+00  9.17279e-01 -4.53224e-01
4
# CELL(abcABC): 1000.00000  1000.00000  1000.00000    90.00000    90.00000    90.00000  Step:          31  Bead:       0 positions{angstrom}  cell{angstrom}
       O -3.14780e+00  1.06213e+00  3.56452e-01
       H -3.03663e+00  3.85305e-01  1.05852e+00
       H -2.61426e+00  1.90112e+00  4.08788e-01
       H -3.76877e+00  9.24657e-01 -4.39757e-01
4
# CELL(abcABC): 1000.00000  1000.00000  1000.00000    90.00000    90.00000    90.00000  Step:          32  Bead:       0 positions{angstrom}  cell{angstrom}
       O -3.14741e+00  1.06243e+00  3.54979e-01
       H -3.03609e+00  3.97269e-01  1.05659e+00
       H -2.61461e+00  1.87738e+00  4.16457e-01
       H -3.77518e+00  9.31686e-01 -4.22112e-01
4
# CELL(abcABC): 1000.00000  1000.00000  1000.00000    90.00000    90.00000    90.00000  Step:          33  Bead:       0 positions{angstrom}  cell{angstrom}
       O -3.14711e+00  1.06283e+00  3.53261e-01
       H -3.03630e+00  4.08532e-01  1.05577e+00
       H -2.61478e+00  1.85274e+00  4.24549e-01
       H -3.77959e+00  9.38738e-01 -4.02116e-01
4
# CELL(abcABC): 1000.00000  1000.00000  1000.00000    90.00000    90.00000    90.00000  Step:          34  Bead:       0 positions{angstrom}  cell{angstrom}
       O -3.14680e+00  1.06315e+00  3.51547e-01
       H -3.03639e+00  4.18827e-01  1.05515e+00
       H -2.61567e+00  1.82994e+00  4.32846e-01
       H -3.78346e+00  9.46100e-01 -3.82584e-01
4
# CELL(abcABC): 1000.00000  1000.00000  1000.00000    90.00000    90.00000    90.00000  Step:          35  Bead:       0 positions{angstrom}  cell{angstrom}
       O -3.14669e+00  1.06323e+00  3.49790e-01
       H -3.03517e+00  4.27546e-01  1.05456e+00
       H -2.61530e+00  1.81279e+00  4.41683e-01
       H -3.78688e+00  9.53189e-01 -3.62944e-01
4
# CELL(abcABC): 1000.00000  1000.00000  1000.00000    90.00000    90.00000    90.00000  Step:          36  Bead:       0 positions{angstrom}  cell{angstrom}
       O -3.14676e+00  1.06296e+00  3.48067e-01
       H -3.03419e+00  4.34185e-01  1.05453e+00
       H -2.61123e+00  1.80345e+00  4.49533e-01
       H -3.79078e+00  9.60238e-01 -3.43418e-01
4
# CELL(abcABC): 1000.00000  1000.00000  1000.00000    90.00000    90.00000    90.00000  Step:          37  Bead:       0 positions{angstrom}  cell{angstrom}
       O -3.14699e+00  1.06246e+00  3.46316e-01
       H -3.03316e+00  4.39127e-01  1.05758e+00
       H -2.60279e+00  1.80067e+00  4.56641e-01
       H -3.79657e+00  9.66016e-01 -3.25764e-01
4
# CELL(abcABC): 1000.00000  1000.00000  1000.00000    90.00000    90.00000    90.00000  Step:          38  Bead:       0 positions{angstrom}  cell{angstrom}
       O -3.14707e+00  1.06172e+00  3.44889e-01
       H -3.03381e+00  4.41256e-01  1.06066e+00
       H -2.59080e+00  1.80337e+00  4.62977e-01
       H -3.80663e+00  9.72922e-01 -3.12543e-01
4
# CELL(abcABC): 1000.00000  1000.00000  1000.00000    90.00000    90.00000    90.00000  Step:          39  Bead:       0 positions{angstrom}  cell{angstrom}
       O -3.14722e+00  1.06095e+00  3.43567e-01
       H -3.03452e+00  4.40280e-01  1.06533e+00
       H -2.57591e+00  1.81007e+00  4.69437e-01
       H -3.81841e+00  9.79448e-01 -3.02681e-01
4
# CELL(abcABC): 1000.00000  1000.00000  1000.00000    90.00000    90.00000    90.00000  Step:          40  Bead:       0 positions{angstrom}  cell{angstrom}
       O -3.14723e+00  1.06006e+00  3.42309e-01
       H -3.03609e+00  4.37310e-01  1.07156e+00
       H -2.55958e+00  1.82020e+00  4.76447e-01
       H -3.83306e+00  9.86330e-01 -2.95956e-01
4
# CELL(abcABC): 1000.00000  1000.00000  1000.00000    90.00000    90.00000    90.00000  Step:          41  Bead:       0 positions{angstrom}  cell{angstrom}
       O -3.14697e+00  1.05916e+00  3.41269e-01
       H -3.03897e+00  4.33515e-01  1.07734e+00
       H -2.54300e+00  1.83198e+00  4.82405e-01
       H -3.85096e+00  9.92651e-01 -2.91184e-01
4
# CELL(abcABC): 1000.00000  1000.00000  1000.00000    90.00000    90.00000    90.00000  Step:          42  Bead:       0 positions{angstrom}  cell{angstrom}
       O -3.14650e+00  1.05848e+00  3.40546e-01
       H -3.04149e+00  4.26875e-01  1.08221e+00
       H -2.52790e+00  1.84322e+00  4.87123e-01
       H -3.87093e+00  9.98963e-01 -2.89286e-01
4
# CELL(abcABC): 1000.00000  1000.00000  1000.00000    90.00000    90.00000    90.00000  Step:          43  Bead:       0 positions{angstrom}  cell{angstrom}
       O -3.14571e+00  1.05785e+00  3.40084e-01
       H -3.04537e+00  4.20682e-01  1.08548e+00
       H -2.51552e+00  1.85375e+00  4.90308e-01
       H -3.89200e+00  1.00450e+00 -2.88427e-01
4
# CELL(abcABC): 1000.00000  1000.00000  1000.00000    90.00000    90.00000    90.00000  Step:          44  Bead:       0 positions{angstrom}  cell{angstrom}
       O -3.14460e+00  1.05743e+00  3.39837e-01
       H -3.05010e+00  4.13940e-01  1.08646e+00
       H -2.50676e+00  1.86074e+00  4.91174e-01
       H -3.91354e+00  1.01103e+00 -2.86345e-01
4
# CELL(abcABC): 1000.00000  1000.00000  1000.00000    90.00000    90.00000    90.00000  Step:          45  Bead:       0 positions{angstrom}  cell{angstrom}
       O -3.14317e+00  1.05720e+00  3.39820e-01
       H -3.05636e+00  4.07856e-01  1.08484e+00
       H -2.50150e+00  1.86330e+00  4.89393e-01
       H -3.93540e+00  1.01817e+00 -2.82673e-01
4
# CELL(abcABC): 1000.00000  1000.00000  1000.00000    90.00000    90.00000    90.00000  Step:          46  Bead:       0 positions{angstrom}  cell{angstrom}
       O -3.14159e+00  1.05716e+00  3.39955e-01
       H -3.06349e+00  4.03165e-01  1.08078e+00
       H -2.50069e+00  1.86092e+00  4.85384e-01
       H -3.95399e+00  1.02580e+00 -2.76745e-01
4
# CELL(abcABC): 1000.00000  1000.00000  1000.00000    90.00000    90.00000    90.00000  Step:          47  Bead:       0 positions{angstrom}  cell{angstrom}
       O -3.13990e+00  1.05717e+00  3.40280e-01
       H -3.07117e+00  3.99047e-01  1.07514e+00
       H -2.50393e+00  1.85482e+00  4.78902e-01
       H -3.96997e+00  1.03597e+00 -2.69780e-01
4
# CELL(abcABC): 1000.00000  1000.00000  1000.00000    90.00000    90.00000    90.00000  Step:          48  Bead:       0 positions{angstrom}  cell{angstrom}
       O -3.13817e+00  1.05737e+00  3.40605e-01
       H -3.07870e+00  3.94679e-01  1.06824e+00
       H -2.51089e+00  1.84585e+00  4.70298e-01
       H -3.98293e+00  1.04601e+00 -2.59433e-01
4
# CELL(abcABC): 1000.00000  1000.00000  1000.00000    90.00000    90.00000    90.00000  Step:          49  Bead:       0 positions{angstrom}  cell{angstrom}
       O -3.13655e+00  1.05765e+00  3.40774e-01
       H -3.08626e+00  3.90506e-01  1.06071e+00
       H -2.51965e+00  1.83395e+00  4.60720e-01
       H -3.99232e+00  1.05768e+00 -2.45007e-01
4
# CELL(abcABC): 1000.00000  1000.00000  1000.00000    90.00000    90.00000    90.00000  Step:          50  Bead:       0 positions{angstrom}  cell{angstrom}
       O -3.13491e+00  1.05800e+00  3.40958e-01
       H -3.09405e+00  3.86978e-01  1.05203e+00
       H -2.53209e+00  1.81989e+00  4.50475e-01
       H -3.99812e+00  1.06976e+00 -2.29007e-01
4
# CELL(abcABC): 1000.00000  1000.00000  1000.00000    90.00000    90.00000    90.00000  Step:          51  Bead:       0 positions{angstrom}  cell{angstrom}
       O -3.13352e+00  1.05825e+00  3.41031e-01
       H -3.10194e+00  3.83340e-01  1.04249e+00
       H -2.54543e+00  1.80640e+00  4.39727e-01
       H -3.99895e+00  1.08295e+00 -2.09883e-01
4
# CELL(abcABC): 1000.00000  1000.00000  1000.00000    90.00000    90.00000    90.00000  Step:          52  Bead:       0 positions{angstrom}  cell{angstrom}
       O -3.13244e+00  1.05840e+00  3.41061e-01
       H -3.10981e+00  3.79527e-01  1.03302e+00
       H -2.55802e+00  1.79457e+00  4.27899e-01
       H -3.99571e+00  1.09619e+00 -1.89056e-01
4
# CELL(abcABC): 1000.00000  1000.00000  1000.00000    90.00000    90.00000    90.00000  Step:          53  Bead:       0 positions{angstrom}  cell{angstrom}
       O -3.13176e+00  1.05822e+00  3.40886e-01
       H -3.11653e+00  3.76044e-01  1.02317e+00
       H -2.56821e+00  1.78842e+00  4.17164e-01
       H -3.98948e+00  1.10860e+00 -1.65698e-01
4
# CELL(abcABC): 1000.00000  1000.00000  1000.00000    90.00000    90.00000    90.00000  Step:          54  Bead:       0 positions{angstrom}  cell{angstrom}
       O -3.13148e+00  1.05777e+00  3.40269e-01
       H -3.12259e+00  3.71188e-01  1.01548e+00
       H -2.57490e+00  1.78868e+00  4.08004e-01
       H -3.98131e+00  1.12036e+00 -1.39054e-01
4
# CELL(abcABC): 1000.00000  1000.00000  1000.00000    90.00000    90.00000    90.00000  Step:          55  Bead:       0 positions{angstrom}  cell{angstrom}
       O -3.13158e+00  1.05695e+00  3.39460e-01
       H -3.12831e+00  3.65918e-01  1.00997e+00
       H -2.57708e+00  1.79524e+00  4.00563e-01
       H -3.97175e+00  1.13211e+00 -1.13269e-01
4
# CELL(abcABC): 1000.00000  1000.00000  1000.00000    90.00000    90.00000    90.00000  Step:          56  Bead:       0 positions{angstrom}  cell{angstrom}
       O -3.13197e+00  1.05574e+00  3.38542e-01
       H -3.13075e+00  3.60422e-01  1.00664e+00
       H -2.57541e+00  1.80705e+00  3.93197e-01
       H -3.96484e+00  1.14504e+00 -8.79946e-02
4
# CELL(abcABC): 1000.00000  1000.00000  1000.00000    90.00000    90.00000    90.00000  Step:          57  Bead:       0 positions{angstrom}  cell{angstrom}
       O -3.13239e+00  1.05421e+00  3.37527e-01
       H -3.13033e+00  3.55203e-01  1.00540e+00
       H -2.57176e+00  1.82233e+00  3.88034e-01
       H -3.96227e+00  1.15929e+00 -6.54753e-02
4
# CELL(abcABC): 1000.00000  1000.00000  1000.00000    90.00000    90.00000    90.00000  Step:          58  Bead:       0 positions{angstrom}  cell{angstrom}
       O -3.13276e+00  1.05254e+00  3.36514e-01
       H -3.12739e+00  3.49185e-01  1.00547e+00
       H -2.56592e+00  1.83958e+00  3.84760e-01
       H -3.96514e+00  1.17454e+00 -4.61948e-02
4
# CELL(abcABC): 1000.00000  1000.00000  1000.00000    90.00000    90.00000    90.00000  Step:          59  Bead:       0 positions{angstrom}  cell{angstrom}
       O -3.13296e+00  1.05075e+00  3.35414e-01
       H -3.12200e+00  3.43584e-01  1.00686e+00
       H -2.55919e+00  1.85723e+00  3.84371e-01
       H -3.97411e+00  1.19092e+00 -2.97396e-02
4
# CELL(abcABC): 1000.00000  1000.00000  1000.00000    90.00000    90.00000    90.00000  Step:          60  Bead:       0 positions{angstrom}  cell{angstrom}
       O -3.13292e+00  1.04903e+00  3.34393e-01
       H -3.11613e+00  3.38300e-01  1.00922e+00
       H -2.55221e+00  1.87227e+00  3.83707e-01
       H -3.98749e+00  1.20836e+00 -1.52251e-02
4
# CELL(abcABC): 1000.00000  1000.00000  1000.00000    90.00000    90.00000    90.00000  Step:          61  Bead:       0 positions{angstrom}  cell{angstrom}
       O -3.13274e+00  1.04748e+00  3.33417e-01
       H -3.10792e+00  3.33588e-01  1.01186e+00
       H -2.54536e+00  1.88356e+00  3.83023e-01
       H -4.00552e+00  1.22646e+00 -1.68688e-03
4
# CELL(abcABC): 1000.00000  1000.00000  1000.00000    90.00000    90.00000    90.00000  Step:          62  Bead:       0 positions{angstrom}  cell{angstrom}
       O -3.13229e+00  1.04620e+00  3.32565e-01
       H -3.09914e+00  3.29529e-01  1.01421e+00
       H -2.54169e+00  1.88971e+00  3.83038e-01
       H -4.02498e+00  1.24462e+00  9.46969e-03
4
# CELL(abcABC): 1000.00000  1000.00000  1000.00000    90.00000    90.00000    90.00000  Step:          63  Bead:       0 positions{angstrom}  cell{angstrom}
       O -3.13170e+00  1.04506e+00  3.31523e-01
       H -3.08884e+00  3.28286e-01  1.01687e+00
       H -2.54070e+00  1.88985e+00  3.84035e-01
       H -4.04568e+00  1.26380e+00  2.23460e-02
4
# CELL(abcABC): 1000.00000  1000.00000  1000.00000    90.00000    90.00000    90.00000  Step:          64  Bead:       0 positions{angstrom}  cell{angstrom}
       O -3.13114e+00  1.04419e+00  3.30377e-01
       H -3.07629e+00  3.29446e-01  1.02013e+00
       H -2.54177e+00  1.88437e+00  3.86168e-01
       H -4.06601e+00  1.28204e+00  3.51573e-02
4
# CELL(abcABC): 1000.00000  1000.00000  1000.00000    90.00000    90.00000    90.00000  Step:          65  Bead:       0 positions{angstrom}  cell{angstrom}
       O -3.13069e+00  1.04352e+00  3.29167e-01
       H -3.06372e+00  3.33547e-01  1.02173e+00
       H -2.54435e+00  1.87506e+00  3.89195e-01
       H -4.08319e+00  1.29790e+00  4.97330e-02
4
# CELL(abcABC): 1000.00000  1000.00000  1000.00000    90.00000    90.00000    90.00000  Step:          66  Bead:       0 positions{angstrom}  cell{angstrom}
       O -3.13044e+00  1.04299e+00  3.27761e-01
       H -3.05070e+00  3.42549e-01  1.02343e+00
       H -2.54855e+00  1.85987e+00  3.93533e-01
       H -4.09607e+00  1.31238e+00  6.60074e-02
4
# CELL(abcABC): 1000.00000  1000.00000  1000.00000    90.00000    90.00000    90.00000  Step:          67  Bead:       0 positions{angstrom}  cell{angstrom}
       O -3.13036e+00  1.04276e+00  3.26228e-01
       H -3.03710e+00  3.52812e-01  1.02392e+00
       H -2.55326e+00  1.84155e+00  3.99332e-01
       H -4.10609e+00  1.32415e+00  8.40537e-02
4
# CELL(abcABC): 1000.00000  1000.00000  1000.00000    90.00000    90.00000    90.00000  Step:          68  Bead:       0 positions{angstrom}  cell{angstrom}
       O -3.13065e+00  1.04264e+00  3.24702e-01
       H -3.02277e+00  3.64477e-01  1.02397e+00
       H -2.55768e+00  1.82166e+00  4.04415e-01
       H -4.11153e+00  1.33433e+00  1.03145e-01
4
# CELL(abcABC): 1000.00000  1000.00000  1000.00000    90.00000    90.00000    90.00000  Step:          69  Bead:       0 positions{angstrom}  cell{angstrom}
       O -3.13125e+00  1.04271e+00  3.22846e-01
       H -3.00888e+00  3.75638e-01  1.02583e+00
       H -2.56169e+00  1.80206e+00  4.11206e-01
       H -4.11180e+00  1.34155e+00  1.23968e-01
4
# CELL(abcABC): 1000.00000  1000.00000  1000.00000    90.00000    90.00000    90.00000  Step:          70  Bead:       0 positions{angstrom}  cell{angstrom}
       O -3.13245e+00  1.04265e+00  3.20845e-01
       H -2.99491e+00  3.87858e-01  1.02709e+00
       H -2.56314e+00  1.78540e+00  4.18464e-01
       H -4.10535e+00  1.34705e+00  1.47199e-01
4
# CELL(abcABC): 1000.00000  1000.00000  1000.00000    90.00000    90.00000    90.00000  Step:          71  Bead:       0 positions{angstrom}  cell{angstrom}
       O -3.13404e+00  1.04257e+00  3.18770e-01
       H -2.98211e+00  3.98799e-01  1.02754e+00
       H -2.56169e+00  1.77205e+00  4.25946e-01
       H -4.09434e+00  1.35070e+00  1.72212e-01
4
# CELL(abcABC): 1000.00000  1000.00000  1000.00000    90.00000    90.00000    90.00000  Step:          72  Bead:       0 positions{angstrom}  cell{angstrom}
       O -3.13608e+00  1.04225e+00  3.16513e-01
       H -2.96962e+00  4.09215e-01  1.02906e+00
       H -2.55605e+00  1.76380e+00  4.34732e-01
       H -4.08010e+00  1.35367e+00  1.97738e-01
4
# CELL(abcABC): 1000.00000  1000.00000  1000.00000    90.00000    90.00000    90.00000  Step:          73  Bead:       0 positions{angstrom}  cell{angstrom}
       O -3.13838e+00  1.04179e+00  3.14216e-01
       H -2.95810e+00  4.18197e-01  1.03133e+00
       H -2.54652e+00  1.76107e+00  4.43893e-01
       H -4.06464e+00  1.35461e+00  2.22756e-01
4
# CELL(abcABC): 1000.00000  1000.00000  1000.00000    90.00000    90.00000    90.00000  Step:          74  Bead:       0 positions{angstrom}  cell{angstrom}
       O -3.14084e+00  1.04114e+00  3.12007e-01
       H -2.94728e+00  4.25655e-01  1.03321e+00
       H -2.53390e+00  1.76285e+00  4.51898e-01
       H -4.04898e+00  1.35575e+00  2.47929e-01
4
# CELL(abcABC): 1000.00000  1000.00000  1000.00000    90.00000    90.00000    90.00000  Step:          75  Bead:       0 positions{angstrom}  cell{angstrom}
       O -3.14306e+00  1.04043e+00  3.09773e-01
       H -2.93811e+00  4.30301e-01  1.03539e+00
       H -2.52005e+00  1.76725e+00  4.60235e-01
       H -4.03673e+00  1.35798e+00  2.72886e-01
4
# CELL(abcABC): 1000.00000  1000.00000  1000.00000    90.00000    90.00000    90.00000  Step:          76  Bead:       0 positions{angstrom}  cell{angstrom}
       O -3.14508e+00  1.03955e+00  3.07431e-01
       H -2.92942e+00  4.33340e-01  1.03930e+00
       H -2.50595e+00  1.77349e+00  4.67806e-01
       H -4.02755e+00  1.36268e+00  2.98575e-01
4
# CELL(abcABC): 1000.00000  1000.00000  1000.00000    90.00000    90.00000    90.00000  Step:          77  Bead:       0 positions{angstrom}  cell{angstrom}
       O -3.14655e+00  1.03863e+00  3.05114e-01
       H -2.92227e+00  4.35625e-01  1.04350e+00
       H -2.49327e+00  1.78041e+00  4.74719e-01
       H -4.02403e+00  1.36795e+00  3.24239e-01
4
# CELL(abcABC): 1000.00000  1000.00000  1000.00000    90.00000    90.00000    90.00000  Step:          78  Bead:       0 positions{angstrom}  cell{angstrom}
       O -3.14740e+00  1.03778e+00  3.03064e-01
       H -2.91788e+00  4.35814e-01  1.04665e+00
       H -2.48181e+00  1.78715e+00  4.79755e-01
       H -4.02634e+00  1.37457e+00  3.48590e-01
4
# CELL(abcABC): 1000.00000  1000.00000  1000.00000    90.00000    90.00000    90.00000  Step:          79  Bead:       0 positions{angstrom}  cell{angstrom}
       O -3.14773e+00  1.03714e+00  3.01126e-01
       H -2.91584e+00  4.35352e-01  1.05058e+00
       H -2.47192e+00  1.79123e+00  4.82693e-01
       H -4.03303e+00  1.38119e+00  3.72493e-01
4
# CELL(abcABC): 1000.00000  1000.00000  1000.00000    90.00000    90.00000    90.00000  Step:          80  Bead:       0 positions{angstrom}  cell{angstrom}
       O -3.14762e+00  1.03667e+00  2.99264e-01
       H -2.91513e+00  4.34300e-01  1.05365e+00
       H -2.46494e+00  1.79256e+00  4.84612e-01
       H -4.04255e+00  1.38828e+00  3.97062e-01
4
# CELL(abcABC): 1000.00000  1000.00000  1000.00000    90.00000    90.00000    90.00000  Step:          81  Bead:       0 positions{angstrom}  cell{angstrom}
       O -3.14711e+00  1.03627e+00  2.97687e-01
       H -2.91403e+00  4.33511e-01  1.05489e+00
       H -2.46209e+00  1.79297e+00  4.84569e-01
       H -4.05455e+00  1.39501e+00  4.20889e-01
4
# CELL(abcABC): 1000.00000  1000.00000  1000.00000    90.00000    90.00000    90.00000  Step:          82  Bead:       0 positions{angstrom}  cell{angstrom}
       O -3.14625e+00  1.03624e+00  2.96270e-01
       H -2.91387e+00  4.31702e-01  1.05549e+00
       H -2.46247e+00  1.78930e+00  4.82291e-01
       H -4.06795e+00  1.40094e+00  4.45061e-01
4
# CELL(abcABC): 1000.00000  1000.00000  1000.00000    90.00000    90.00000    90.00000  Step:          83  Bead:       0 positions{angstrom}  cell{angstrom}
       O -3.14520e+00  1.03639e+00  2.95140e-01
       H -2.91520e+00  4.30032e-01  1.05492e+00
       H -2.46621e+00  1.78343e+00  4.77915e-01
       H -4.07954e+00  1.40611e+00  4.67953e-01
4
# CELL(abcABC): 1000.00000  1000.00000  1000.00000    90.00000    90.00000    90.00000  Step:          84  Bead:       0 positions{angstrom}  cell{angstrom}
       O -3.14402e+00  1.03678e+00  2.94348e-01
       H -2.91684e+00  4.27416e-01  1.05164e+00
       H -2.47387e+00  1.77568e+00  4.71446e-01
       H -4.08899e+00  1.41040e+00  4.90259e-01
4
# CELL(abcABC): 1000.00000  1000.00000  1000.00000    90.00000    90.00000    90.00000  Step:          85  Bead:       0 positions{angstrom}  cell{angstrom}