4
# CELL(abcABC): 1000.00000  1000.00000  1000.00000    90.00000    90.00000    90.00000  Step:         741  Bead:       0 positions{angstrom}  cell{angstrom}
       O -3.15830e+00  1.06947e+00  3.57853e-01
       H -3.38150e+00  1.74670e-01  5.49900e-01
       H -3.09723e+00  1.20402e+00 -5.90861e-01
       H -2.77439e+00  1.71603e+00  1.04629e+00
