4
# CELL(abcABC): 1000.00000  1000.00000  1000.00000    90.00000    90.00000    90.00000  Step:           0  Bead:       0 positions{angstrom}  cell{angstrom}
       O -3.15830e+00  1.06947e+00  3.57853e-01
       H -3.38150e+00  1.74670e-01  5.49900e-01
       H -3.09723e+00  1.20402e+00 -5.90861e-01
       H -2.77439e+00  1.71603e+00  1.04629e+00
4
# CELL(abcABC): 1000.00000  1000.00000  1000.00000    90.00000    90.00000    90.00000  Step:           1  Bead:       0 positions{angstrom}  cell{angstrom}
       O -3.15659e+00  1.06978e+00  3.57265e-01
       H -3.39153e+00  1.67023e-01  5.54422e-01
       H -3.09702e+00  1.20356e+00 -5.89267e-01
       H -2.79164e+00  1.71917e+00  1.04951e+00
4
# CELL(abcABC): 1000.00000  1000.00000  1000.00000    90.00000    90.00000    90.00000  Step:           2  Bead:       0 positions{angstrom}  cell{angstrom}
       O -3.15495e+00  1.07002e+00  3.56621e-01
       H -3.40205e+00  1.60249e-01  5.59629e-01
       H -3.09513e+00  1.20355e+00 -5.87068e-01
       H -2.80909e+00  1.72222e+00  1.05232e+00
4
# CELL(abcABC): 1000.00000  1000.00000  1000.00000    90.00000    90.00000    90.00000  Step:           3  Bead:       0 positions{angstrom}  cell{angstrom}
       O -3.15327e+00  1.07014e+00  3.55900e-01
       H -3.41200e+00  1.54308e-01  5.66442e-01
       H -3.09344e+00  1.20523e+00 -5.83944e-01
       H -2.82754e+00  1.72457e+00  1.05383e+00
4
# CELL(abcABC): 1000.00000  1000.00000  1000.00000    90.00000    90.00000    90.00000  Step:           4  Bead:       0 positions{angstrom}  cell{angstrom}
       O -3.15163e+00  1.07008e+00  3.55308e-01
       H -3.42181e+00  1.50303e-01  5.71618e-01
       H -3.09107e+00  1.20824e+00 -5.81389e-01
       H -2.84613e+00  1.72648e+00  1.05549e+00
4
# CELL(abcABC): 1000.00000  1000.00000  1000.00000    90.00000    90.00000    90.00000  Step:           5  Bead:       0 positions{angstrom}  cell{angstrom}
       O -3.14993e+00  1.06963e+00  3.54846e-01
       H -3.43176e+00  1.50216e-01  5.75660e-01
       H -3.08935e+00  1.21317e+00 -5.78245e-01
       H -2.86489e+00  1.72886e+00  1.05564e+00
4
# CELL(abcABC): 1000.00000  1000.00000  1000.00000    90.00000    90.00000    90.00000  Step:           6  Bead:       0 positions{angstrom}  cell{angstrom}
       O -3.14816e+00  1.06894e+00  3.54540e-01
       H -3.44086e+00  1.54588e-01  5.77667e-01
       H -3.08831e+00  1.21728e+00 -5.76842e-01
       H -2.88485e+00  1.73132e+00  1.05709e+00
4
# CELL(abcABC): 1000.00000  1000.00000  1000.00000    90.00000    90.00000    90.00000  Step:           7  Bead:       0 positions{angstrom}  cell{angstrom}
       O -3.14649e+00  1.06785e+00  3.54166e-01
       H -3.44770e+00  1.62961e-01  5.79795e-01
       H -3.08755e+00  1.22170e+00 -5.75478e-01
       H -2.90535e+00  1.73583e+00  1.05953e+00
4
# CELL(abcABC): 1000.00000  1000.00000  1000.00000    90.00000    90.00000    90.00000  Step:           8  Bead:       0 positions{angstrom}  cell{angstrom}
       O -3.14493e+00  1.06651e+00  3.53971e-01
       H -3.45285e+00  1.74667e-01  5.80132e-01
       H -3.08594e+00  1.22572e+00 -5.75656e-01
       H -2.92652e+00  1.74132e+00  1.06247e+00
4
# CELL(abcABC): 1000.00000  1000.00000  1000.00000    90.00000    90.00000    90.00000  Step:           9  Bead:       0 positions{angstrom}  cell{angstrom}
       O -3.14343e+00  1.06509e+00  3.53752e-01
       H -3.45750e+00  1.87688e-01  5.80629e-01
       H -3.08344e+00  1.23017e+00 -5.75965e-01
       H -2.94823e+00  1.74642e+00  1.06576e+00
4
# CELL(abcABC): 1000.00000  1000.00000  1000.00000    90.00000    90.00000    90.00000  Step:          10  Bead:       0 positions{angstrom}  cell{angstrom}
       O -3.14191e+00  1.06353e+00  3.53738e-01
       H -3.46187e+00  2.01457e-01  5.79601e-01
       H -3.08094e+00  1.23536e+00 -5.77534e-01
       H -2.97048e+00  1.75224e+00  1.06859e+00
4
# CELL(abcABC): 1000.00000  1000.00000  1000.00000    90.00000    90.00000    90.00000  Step:          11  Bead:       0 positions{angstrom}  cell{angstrom}
       O -3.14033e+00  1.06203e+00  3.53912e-01
       H -3.46627e+00  2.15132e-01  5.76782e-01
       H -3.07993e+00  1.24007e+00 -5.79643e-01
       H -2.99212e+00  1.75766e+00  1.07074e+00
4
# CELL(abcABC): 1000.00000  1000.00000  1000.00000    90.00000    90.00000    90.00000  Step:          12  Bead:       0 positions{angstrom}  cell{angstrom}
       O -3.13880e+00  1.06077e+00  3.54167e-01
       H -3.47019e+00  2.26145e-01  5.73506e-01
       H -3.07931e+00  1.24314e+00 -5.82425e-01
       H -3.01312e+00  1.76355e+00  1.07275e+00
4
# CELL(abcABC): 1000.00000  1000.00000  1000.00000    90.00000    90.00000    90.00000  Step:          13  Bead:       0 positions{angstrom}  cell{angstrom}
       O -3.13723e+00  1.05982e+00  3.54366e-01
       H -3.47537e+00  2.33844e-01  5.70706e-01
       H -3.07774e+00  1.24546e+00 -5.84377e-01
       H -3.03453e+00  1.76854e+00  1.07435e+00
4
# CELL(abcABC): 1000.00000  1000.00000  1000.00000    90.00000    90.00000    90.00000  Step:          14  Bead:       0 positions{angstrom}  cell{angstrom}
       O -3.13559e+00  1.05923e+00  3.54458e-01
       H -3.48087e+00  2.36506e-01  5.68825e-01
       H -3.07604e+00  1.24767e+00 -5.85175e-01
       H -3.05675e+00  1.77313e+00  1.07556e+00
4
# CELL(abcABC): 1000.00000  1000.00000  1000.00000    90.00000    90.00000    90.00000  Step:          15  Bead:       0 positions{angstrom}  cell{angstrom}
       O -3.13375e+00  1.05890e+00  3.54254e-01
       H -3.49011e+00  2.33864e-01  5.69665e-01
       H -3.07537e+00  1.24964e+00 -5.84418e-01
       H -3.07728e+00  1.77900e+00  1.07722e+00
4
# CELL(abcABC): 1000.00000  1000.00000  1000.00000    90.00000    90.00000    90.00000  Step:          16  Bead:       0 positions{angstrom}  cell{angstrom}
       O -3.13186e+00  1.05881e+00  3.53995e-01
       H -3.49972e+00  2.27129e-01  5.70483e-01
       H -3.07534e+00  1.25199e+00 -5.82320e-01
       H -3.09776e+00  1.78475e+00  1.07840e+00
4
# CELL(abcABC): 1000.00000  1000.00000  1000.00000    90.00000    90.00000    90.00000  Step:          17  Bead:       0 positions{angstrom}  cell{angstrom}
       O -3.12981e+00  1.05894e+00  3.53731e-01
       H -3.50940e+00  2.18715e-01  5.71429e-01
       H -3.07684e+00  1.25439e+00 -5.80195e-01
       H -3.11915e+00  1.78879e+00  1.07953e+00
4
# CELL(abcABC): 1000.00000  1000.00000  1000.00000    90.00000    90.00000    90.00000  Step:          18  Bead:       0 positions{angstrom}  cell{angstrom}
       O -3.12769e+00  1.05908e+00  3.53519e-01
       H -3.52016e+00  2.10686e-01  5.72003e-01
       H -3.07776e+00  1.25628e+00 -5.77495e-01
       H -3.14103e+00  1.79266e+00  1.07961e+00
4
# CELL(abcABC): 1000.00000  1000.00000  1000.00000    90.00000    90.00000    90.00000  Step:          19  Bead:       0 positions{angstrom}  cell{angstrom}
       O -3.12569e+00  1.05928e+00  3.53408e-01
       H -3.52983e+00  2.03635e-01  5.72052e-01
       H -3.07997e+00  1.25715e+00 -5.75229e-01
       H -3.16095e+00  1.79564e+00  1.07906e+00
4
# CELL(abcABC): 1000.00000  1000.00000  1000.00000    90.00000    90.00000    90.00000  Step:          20  Bead:       0 positions{angstrom}  cell{angstrom}
       O -3.12375e+00  1.05947e+00  3.53528e-01
       H -3.53811e+00  1.99382e-01  5.69359e-01
       H -3.08360e+00  1.25775e+00 -5.72874e-01
       H -3.17985e+00  1.79639e+00  1.07750e+00
4
# CELL(abcABC): 1000.00000  1000.00000  1000.00000    90.00000    90.00000    90.00000  Step:          21  Bead:       0 positions{angstrom}  cell{angstrom}
       O -3.12199e+00  1.05953e+00  3.53937e-01
       H -3.54507e+00  1.97736e-01  5.63924e-01
       H -3.08601e+00  1.25864e+00 -5.70081e-01
       H -3.19835e+00  1.79608e+00  1.07365e+00
4
# CELL(abcABC): 1000.00000  1000.00000  1000.00000    90.00000    90.00000    90.00000  Step:          22  Bead:       0 positions{angstrom}  cell{angstrom}
       O -3.12045e+00  1.05938e+00  3.54688e-01
       H -3.55118e+00  1.98692e-01  5.57804e-01
       H -3.08650e+00  1.25966e+00 -5.69763e-01
       H -3.21627e+00  1.79661e+00  1.06753e+00
4
# CELL(abcABC): 1000.00000  1000.00000  1000.00000    90.00000    90.00000    90.00000  Step:          23  Bead:       0 positions{angstrom}  cell{angstrom}
       O -3.11911e+00  1.05905e+00  3.55865e-01
       H -3.55509e+00  2.03727e-01  5.49554e-01
       H -3.08609e+00  1.26104e+00 -5.69876e-01
       H -3.23405e+00  1.79541e+00  1.05721e+00
4
# CELL(abcABC): 1000.00000  1000.00000  1000.00000    90.00000    90.00000    90.00000  Step:          24  Bead:       0 positions{angstrom}  cell{angstrom}
       O -3.11796e+00  1.05847e+00  3.57242e-01
       H -3.55655e+00  2.10894e-01  5.39873e-01
       H -3.08512e+00  1.26337e+00 -5.70350e-01
       H -3.25172e+00  1.79508e+00  1.04550e+00
4
# CELL(abcABC): 1000.00000  1000.00000  1000.00000    90.00000    90.00000    90.00000  Step:          25  Bead:       0 positions{angstrom}  cell{angstrom}
       O -3.11693e+00  1.05786e+00  3.58657e-01
       H -3.55659e+00  2.19398e-01  5.29973e-01
       H -3.08422e+00  1.26485e+00 -5.70910e-01
       H -3.26904e+00  1.79468e+00  1.03351e+00
4
# CELL(abcABC): 1000.00000  1000.00000  1000.00000    90.00000    90.00000    90.00000  Step:          26  Bead:       0 positions{angstrom}  cell{angstrom}
       O -3.11599e+00  1.05729e+00  3.60101e-01
       H -3.55568e+00  2.28524e-01  5.18733e-01
       H -3.08264e+00  1.26577e+00 -5.71602e-01
       H -3.28640e+00  1.79382e+00  1.02251e+00
4
# CELL(abcABC): 1000.00000  1000.00000  1000.00000    90.00000    90.00000    90.00000  Step:          27  Bead:       0 positions{angstrom}  cell{angstrom}
       O -3.11523e+00  1.05670e+00  3.61555e-01
       H -3.55461e+00  2.38619e-01  5.06602e-01
       H -3.08059e+00  1.26550e+00 -5.72224e-01
       H -3.30160e+00  1.79322e+00  1.01219e+00
4
# CELL(abcABC): 1000.00000  1000.00000  1000.00000    90.00000    90.00000    90.00000  Step:          28  Bead:       0 positions{angstrom}  cell{angstrom}
       O -3.11444e+00  1.05622e+00  3.62863e-01
       H -3.55503e+00  2.45728e-01  4.94528e-01
       H -3.07741e+00  1.26501e+00 -5.71896e-01
       H -3.31682e+00  1.79433e+00  1.00317e+00
4
# CELL(abcABC): 1000.00000  1000.00000  1000.00000    90.00000    90.00000    90.00000  Step:          29  Bead:       0 positions{angstrom}  cell{angstrom}
       O -3.11369e+00  1.05584e+00  3.64061e-01
       H -3.55576e+00  2.50598e-01  4.81557e-01
       H -3.07457e+00  1.26417e+00 -5.70737e-01
       H -3.33093e+00  1.79635e+00  9.95969e-01
4
# CELL(abcABC): 1000.00000  1000.00000  1000.00000    90.00000    90.00000    90.00000  Step:          30  Bead:       0 positions{angstrom}  cell{angstrom}
       O -3.11292e+00  1.05553e+00  3.65073e-01
       H -3.55753e+00  2.53096e-01  4.70126e-01
       H -3.07133e+00  1.26310e+00 -5.68332e-01
       H -3.34464e+00  1.79980e+00  9.88932e-01
4
# CELL(abcABC): 1000.00000  1000.00000  1000.00000    90.00000    90.00000    90.00000  Step:          31  Bead:       0 positions{angstrom}  cell{angstrom}
       O -3.11226e+00  1.05530e+00  3.65994e-01
       H -3.55936e+00  2.51986e-01  4.59845e-01
       H -3.06678e+00  1.26314e+00 -5.65929e-01
       H -3.35782e+00  1.80452e+00  9.82193e-01
4
# CELL(abcABC): 1000.00000  1000.00000  1000.00000    90.00000    90.00000    90.00000  Step:          32  Bead:       0 positions{angstrom}  cell{angstrom}
       O -3.11156e+00  1.05535e+00  3.66594e-01
       H -3.56368e+00  2.45328e-01  4.51215e-01
       H -3.06096e+00  1.26456e+00 -5.61864e-01
       H -3.37033e+00  1.80899e+00  9.77223e-01
4
# CELL(abcABC): 1000.00000  1000.00000  1000.00000    90.00000    90.00000    90.00000  Step:          33  Bead:       0 positions{angstrom}  cell{angstrom}
       O -3.11089e+00  1.05566e+00  3.66981e-01
       H -3.56957e+00  2.35288e-01  4.44769e-01
       H -3.05400e+00  1.26523e+00 -5.57236e-01
       H -3.38215e+00  1.81345e+00  9.72904e-01
4
# CELL(abcABC): 1000.00000  1000.00000  1000.00000    90.00000    90.00000    90.00000  Step:          34  Bead:       0 positions{angstrom}  cell{angstrom}
       O -3.11017e+00  1.05606e+00  3.67412e-01
       H -3.57519e+00  2.23847e-01  4.38938e-01
       H -3.04806e+00  1.26577e+00 -5.52704e-01
       H -3.39391e+00  1.81804e+00  9.67359e-01
4
# CELL(abcABC): 1000.00000  1000.00000  1000.00000    90.00000    90.00000    90.00000  Step:          35  Bead:       0 positions{angstrom}  cell{angstrom}
       O -3.10963e+00  1.05638e+00  3.67847e-01
       H -3.57843e+00  2.12631e-01  4.32954e-01
       H -3.04252e+00  1.26771e+00 -5.48445e-01
       H -3.40476e+00  1.82210e+00  9.62181e-01
4
# CELL(abcABC): 1000.00000  1000.00000  1000.00000    90.00000    90.00000    90.00000  Step:          36  Bead:       0 positions{angstrom}  cell{angstrom}
       O -3.10932e+00  1.05652e+00  3.68347e-01
       H -3.58002e+00  2.02994e-01  4.26885e-01
       H -3.03598e+00  1.27150e+00 -5.46417e-01
       H -3.41459e+00  1.82579e+00  9.58280e-01
4
# CELL(abcABC): 1000.00000  1000.00000  1000.00000    90.00000    90.00000    90.00000  Step:          37  Bead:       0 positions{angstrom}  cell{angstrom}
       O -3.10931e+00  1.05656e+00  3.68797e-01
       H -3.57909e+00  1.96678e-01  4.22900e-01
       H -3.02805e+00  1.27522e+00 -5.46328e-01
       H -3.42362e+00  1.82776e+00  9.55044e-01
4
# CELL(abcABC): 1000.00000  1000.00000  1000.00000    90.00000    90.00000    90.00000  Step:          38  Bead:       0 positions{angstrom}  cell{angstrom}
       O -3.10940e+00  1.05643e+00  3.69458e-01
       H -3.57699e+00  1.93132e-01  4.17981e-01
       H -3.01910e+00  1.27822e+00 -5.47726e-01
       H -3.43318e+00  1.83035e+00  9.50864e-01
4
# CELL(abcABC): 1000.00000  1000.00000  1000.00000    90.00000    90.00000    90.00000  Step:          39  Bead:       0 positions{angstrom}  cell{angstrom}
       O -3.10993e+00  1.05627e+00  3.70031e-01
       H -3.57196e+00  1.92137e-01  4.13819e-01
       H -3.00873e+00  1.28021e+00 -5.48931e-01
       H -3.44023e+00  1.83185e+00  9.47129e-01
4
# CELL(abcABC): 1000.00000  1000.00000  1000.00000    90.00000    90.00000    90.00000  Step:          40  Bead:       0 positions{angstrom}  cell{angstrom}
       O -3.11076e+00  1.05595e+00  3.70397e-01
       H -3.56483e+00  1.94215e-01  4.10901e-01
       H -2.99706e+00  1.28232e+00 -5.48710e-01
       H -3.44584e+00  1.83285e+00  9.44026e-01
4
# CELL(abcABC): 1000.00000  1000.00000  1000.00000    90.00000    90.00000    90.00000  Step:          41  Bead:       0 positions{angstrom}  cell{angstrom}
       O -3.11182e+00  1.05552e+00  3.70655e-01
       H -3.55632e+00  1.99350e-01  4.07877e-01
       H -2.98374e+00  1.28461e+00 -5.48019e-01
       H -3.45080e+00  1.83222e+00  9.42263e-01
4
# CELL(abcABC): 1000.00000  1000.00000  1000.00000    90.00000    90.00000    90.00000  Step:          42  Bead:       0 positions{angstrom}  cell{angstrom}
       O -3.11319e+00  1.05522e+00  3.70883e-01
       H -3.54523e+00  2.03923e-01  4.04878e-01
       H -2.96917e+00  1.28661e+00 -5.46468e-01
       H -3.45473e+00  1.83033e+00  9.40091e-01
4
# CELL(abcABC): 1000.00000  1000.00000  1000.00000    90.00000    90.00000    90.00000  Step:          43  Bead:       0 positions{angstrom}  cell{angstrom}
       O -3.11469e+00  1.05495e+00  3.71021e-01
       H -3.53392e+00  2.09414e-01  4.01910e-01
       H -2.95352e+00  1.28952e+00 -5.43929e-01
       H -3.45791e+00  1.82628e+00  9.38325e-01
4
# CELL(abcABC): 1000.00000  1000.00000  1000.00000    90.00000    90.00000    90.00000  Step:          44  Bead:       0 positions{angstrom}  cell{angstrom}
       O -3.11625e+00  1.05488e+00  3.71038e-01
       H -3.52259e+00  2.12949e-01  3.98720e-01
       H -2.93695e+00  1.29148e+00 -5.40910e-01
       H -3.46111e+00  1.82185e+00  9.38233e-01
4
# CELL(abcABC): 1000.00000  1000.00000  1000.00000    90.00000    90.00000    90.00000  Step:          45  Bead:       0 positions{angstrom}  cell{angstrom}
       O -3.11774e+00  1.05509e+00  3.70981e-01
       H -3.51260e+00  2.14123e-01  3.95273e-01
       H -2.91895e+00  1.29223e+00 -5.37615e-01
       H -3.46545e+00  1.81667e+00  9.39292e-01
4
# CELL(abcABC): 1000.00000  1000.00000  1000.00000    90.00000    90.00000    90.00000  Step:          46  Bead:       0 positions{angstrom}  cell{angstrom}
       O -3.11926e+00  1.05561e+00  3.70815e-01
       H -3.50382e+00  2.12598e-01  3.91785e-01
       H -2.90042e+00  1.29149e+00 -5.33609e-01
       H -3.46858e+00  1.81067e+00  9.41398e-01
4
# CELL(abcABC): 1000.00000  1000.00000  1000.00000    90.00000    90.00000    90.00000  Step:          47  Bead:       0 positions{angstrom}  cell{angstrom}
       O -3.12073e+00  1.05631e+00  3.70631e-01
       H -3.49626e+00  2.07144e-01  3.88922e-01
       H -2.88121e+00  1.29038e+00 -5.29288e-01
       H -3.47207e+00  1.80603e+00  9.42862e-01
4
# CELL(abcABC): 1000.00000  1000.00000  1000.00000    90.00000    90.00000    90.00000  Step:          48  Bead:       0 positions{angstrom}  cell{angstrom}
       O -3.12214e+00  1.05737e+00  3.70293e-01
       H -3.48925e+00  1.97296e-01  3.86693e-01
       H -2.86158e+00  1.28927e+00 -5.24529e-01
       H -3.47627e+00  1.80025e+00  9.45704e-01
4
# CELL(abcABC): 1000.00000  1000.00000  1000.00000    90.00000    90.00000    90.00000  Step:          49  Bead:       0 positions{angstrom}  cell{angstrom}
       O -3.12357e+00  1.05860e+00  3.69697e-01
       H -3.48276e+00  1.84587e-01  3.85320e-01
       H -2.84047e+00  1.28735e+00 -5.18490e-01
       H -3.48113e+00  1.79527e+00  9.50499e-01
4
# CELL(abcABC): 1000.00000  1000.00000  1000.00000    90.00000    90.00000    90.00000  Step:          50  Bead:       0 positions{angstrom}  cell{angstrom}
       O -3.12484e+00  1.05999e+00  3.69068e-01
       H -3.47659e+00  1.70978e-01  3.83861e-01
       H -2.82090e+00  1.28425e+00 -5.11309e-01
       H -3.48677e+00  1.79001e+00  9.54764e-01
4
# CELL(abcABC): 1000.00000  1000.00000  1000.00000    90.00000    90.00000    90.00000  Step:          51  Bead:       0 positions{angstrom}  cell{angstrom}
       O -3.12614e+00  1.06134e+00  3.68342e-01
       H -3.47028e+00  1.57409e-01  3.82110e-01
       H -2.80157e+00  1.28115e+00 -5.03488e-01
       H -3.49177e+00  1.78529e+00  9.60205e-01
4
# CELL(abcABC): 1000.00000  1000.00000  1000.00000    90.00000    90.00000    90.00000  Step:          52  Bead:       0 positions{angstrom}  cell{angstrom}
       O -3.12747e+00  1.06265e+00  3.67644e-01
       H -3.46341e+00  1.45456e-01  3.80477e-01
       H -2.78248e+00  1.27735e+00 -4.96315e-01
       H -3.49662e+00  1.78017e+00  9.65745e-01
4
# CELL(abcABC): 1000.00000  1000.00000  1000.00000    90.00000    90.00000    90.00000  Step:          53  Bead:       0 positions{angstrom}  cell{angstrom}
       O -3.12888e+00  1.06373e+00  3.66844e-01
       H -3.45474e+00  1.36984e-01  3.78036e-01
       H -2.76374e+00  1.27503e+00 -4.88178e-01
       H -3.50161e+00  1.77385e+00  9.72747e-01
4
# CELL(abcABC): 1000.00000  1000.00000  1000.00000    90.00000    90.00000    90.00000  Step:          54  Bead:       0 positions{angstrom}  cell{angstrom}
       O -3.13034e+00  1.06463e+00  3.65721e-01
       H -3.44481e+00  1.31224e-01  3.76815e-01
       H -2.74551e+00  1.27366e+00 -4.79065e-01
       H -3.50660e+00  1.76659e+00  9.82687e-01
4
# CELL(abcABC): 1000.00000  1000.00000  1000.00000    90.00000    90.00000    90.00000  Step:          55  Bead:       0 positions{angstrom}  cell{angstrom}
       O -3.13193e+00  1.06528e+00  3.64515e-01
       H -3.43412e+00  1.29515e-01  3.76539e-01
       H -2.72721e+00  1.27281e+00 -4.69258e-01
       H -3.51043e+00  1.75892e+00  9.92295e-01
4
# CELL(abcABC): 1000.00000  1000.00000  1000.00000    90.00000    90.00000    90.00000  Step:          56  Bead:       0 positions{angstrom}  cell{angstrom}
       O -3.13367e+00  1.06561e+00  3.63275e-01
       H -3.41999e+00  1.31833e-01  3.77048e-01
       H -2.70909e+00  1.27223e+00 -4.60702e-01
       H -3.51504e+00  1.75188e+00  1.00291e+00
4
# CELL(abcABC): 1000.00000  1000.00000  1000.00000    90.00000    90.00000    90.00000  Step:          57  Bead:       0 positions{angstrom}  cell{angstrom}
       O -3.13548e+00  1.06568e+00  3.61963e-01
       H -3.40325e+00  1.37791e-01  3.78289e-01
       H -2.69207e+00  1.27177e+00 -4.51276e-01
       H -3.52002e+00  1.74539e+00  1.01308e+00
4
# CELL(abcABC): 1000.00000  1000.00000  1000.00000    90.00000    90.00000    90.00000  Step:          58  Bead:       0 positions{angstrom}  cell{angstrom}
       O -3.13744e+00  1.06564e+00  3.60648e-01
       H -3.38473e+00  1.44796e-01  3.79621e-01
       H -2.67464e+00  1.27192e+00 -4.41354e-01
       H -3.52484e+00  1.73887e+00  1.02269e+00
4
# CELL(abcABC): 1000.00000  1000.00000  1000.00000    90.00000    90.00000    90.00000  Step:          59  Bead:       0 positions{angstrom}  cell{angstrom}
       O -3.13952e+00  1.06550e+00  3.59228e-01
       H -3.36498e+00  1.52157e-01  3.81354e-01
       H -2.65679e+00  1.27322e+00 -4.29920e-01
       H -3.52940e+00  1.73229e+00  1.03208e+00
4
# CELL(abcABC): 1000.00000  1000.00000  1000.00000    90.00000    90.00000    90.00000  Step:          60  Bead:       0 positions{angstrom}  cell{angstrom}
       O -3.14170e+00  1.06550e+00  3.57878e-01
       H -3.34638e+00  1.57642e-01  3.83528e-01
       H -2.63792e+00  1.27457e+00 -4.20124e-01
       H -3.53230e+00  1.72559e+00  1.04153e+00
4
# CELL(abcABC): 1000.00000  1000.00000  1000.00000    90.00000    90.00000    90.00000  Step:          61  Bead:       0 positions{angstrom}  cell{angstrom}
       O -3.14402e+00  1.06571e+00  3.56575e-01
       H -3.32733e+00  1.59587e-01  3.85858e-01
       H -2.61766e+00  1.27626e+00 -4.11414e-01
       H -3.53485e+00  1.71855e+00  1.05118e+00
4
# CELL(abcABC): 1000.00000  1000.00000  1000.00000    90.00000    90.00000    90.00000  Step:          62  Bead:       0 positions{angstrom}  cell{angstrom}
       O -3.14627e+00  1.06627e+00  3.55398e-01
       H -3.30967e+00  1.56738e-01  3.88202e-01
       H -2.59879e+00  1.27788e+00 -4.02522e-01
       H -3.53554e+00  1.71094e+00  1.05861e+00
4
# CELL(abcABC): 1000.00000  1000.00000  1000.00000    90.00000    90.00000    90.00000  Step:          63  Bead:       0 positions{angstrom}  cell{angstrom}
       O -3.14847e+00  1.06698e+00  3.54037e-01
       H -3.29230e+00  1.50906e-01  3.91513e-01
       H -2.58084e+00  1.27903e+00 -3.92711e-01
       H -3.53607e+00  1.70427e+00  1.06710e+00
4
# CELL(abcABC): 1000.00000  1000.00000  1000.00000    90.00000    90.00000    90.00000  Step:          64  Bead:       0 positions{angstrom}  cell{angstrom}
       O -3.15066e+00  1.06792e+00  3.52590e-01
       H -3.27424e+00  1.42058e-01  3.96318e-01
       H -2.56348e+00  1.28015e+00 -3.81503e-01
       H -3.53663e+00  1.69715e+00  1.07406e+00
4
# CELL(abcABC): 1000.00000  1000.00000  1000.00000    90.00000    90.00000    90.00000  Step:          65  Bead:       0 positions{angstrom}  cell{angstrom}
       O -3.15283e+00  1.06894e+00  3.51110e-01
       H -3.25736e+00  1.31761e-01  4.00513e-01
       H -2.54662e+00  1.28272e+00 -3.68926e-01
       H -3.53604e+00  1.68867e+00  1.08077e+00
4
# CELL(abcABC): 1000.00000  1000.00000  1000.00000    90.00000    90.00000    90.00000  Step:          66  Bead:       0 positions{angstrom}  cell{angstrom}
       O -3.15496e+00  1.06990e+00  3.49479e-01
       H -3.24093e+00  1.23499e-01  4.05789e-01
       H -2.53096e+00  1.28407e+00 -3.54399e-01
       H -3.53431e+00  1.68034e+00  1.08687e+00
4
# CELL(abcABC): 1000.00000  1000.00000  1000.00000    90.00000    90.00000    90.00000  Step:          67  Bead:       0 positions{angstrom}  cell{angstrom}
       O -3.15696e+00  1.07089e+00  3.47789e-01
       H -3.22461e+00  1.15105e-01  4.10567e-01
       H -2.51612e+00  1.28590e+00 -3.37803e-01
       H -3.53365e+00  1.67124e+00  1.09231e+00
4
# CELL(abcABC): 1000.00000  1000.00000  1000.00000    90.00000    90.00000    90.00000  Step:          68  Bead:       0 positions{angstrom}  cell{angstrom}
       O -3.15893e+00  1.07169e+00  3.46208e-01
       H -3.20808e+00  1.08319e-01  4.15245e-01
       H -2.50213e+00  1.28841e+00 -3.21475e-01
       H -3.53287e+00  1.66279e+00  1.09640e+00
4
# CELL(abcABC): 1000.00000  1000.00000  1000.00000    90.00000    90.00000    90.00000  Step:          69  Bead:       0 positions{angstrom}  cell{angstrom}
       O -3.16077e+00  1.07239e+00  3.44426e-01
       H -3.19242e+00  1.02690e-01  4.21643e-01
       H -2.48993e+00  1.29179e+00 -3.03126e-01
       H -3.53159e+00  1.65382e+00  1.09995e+00
4
# CELL(abcABC): 1000.00000  1000.00000  1000.00000    90.00000    90.00000    90.00000  Step:          70  Bead:       0 positions{angstrom}  cell{angstrom}
       O -3.16269e+00  1.07269e+00  3.42652e-01
       H -3.17698e+00  1.00958e-01  4.27075e-01
       H -2.47832e+00  1.29694e+00 -2.84324e-01
       H -3.52811e+00  1.64567e+00  1.10387e+00
4
# CELL(abcABC): 1000.00000  1000.00000  1000.00000    90.00000    90.00000    90.00000  Step:          71  Bead:       0 positions{angstrom}  cell{angstrom}
       O -3.16450e+00  1.07276e+00  3.40973e-01
       H -3.16295e+00  1.01543e-01  4.30979e-01
       H -2.46770e+00  1.30277e+00 -2.65566e-01
       H -3.52401e+00  1.63811e+00  1.10786e+00
4
# CELL(abcABC): 1000.00000  1000.00000  1000.00000    90.00000    90.00000    90.00000  Step:          72  Bead:       0 positions{angstrom}  cell{angstrom}
       O -3.16630e+00  1.07243e+00  3.39290e-01
       H -3.14941e+00  1.05641e-01  4.34964e-01
       H -2.45717e+00  1.31010e+00 -2.45965e-01
       H -3.51962e+00  1.63205e+00  1.11099e+00
4
# CELL(abcABC): 1000.00000  1000.00000  1000.00000    90.00000    90.00000    90.00000  Step:          73  Bead:       0 positions{angstrom}  cell{angstrom}
       O -3.16799e+00  1.07184e+00  3.37736e-01
       H -3.13694e+00  1.12240e-01  4.38592e-01
       H -2.44676e+00  1.31923e+00 -2.26489e-01
       H -3.51555e+00  1.62569e+00  1.11255e+00
4
# CELL(abcABC): 1000.00000  1000.00000  1000.00000    90.00000    90.00000    90.00000  Step:          74  Bead:       0 positions{angstrom}  cell{angstrom}
       O -3.16966e+00  1.07095e+00  3.36403e-01
       H -3.12515e+00  1.20670e-01  4.40738e-01
       H -2.43643e+00  1.32984e+00 -2.08470e-01
       H -3.51122e+00  1.62067e+00  1.11354e+00
4
# CELL(abcABC): 1000.00000  1000.00000  1000.00000    90.00000    90.00000    90.00000  Step:          75  Bead:       0 positions{angstrom}  cell{angstrom}
       O -3.17108e+00  1.06995e+00  3.35125e-01
       H -3.11487e+00  1.28668e-01  4.42235e-01
       H -2.42696e+00  1.34117e+00 -1.89970e-01
       H -3.50838e+00  1.61720e+00  1.11384e+00
4
# CELL(abcABC): 1000.00000  1000.00000  1000.00000    90.00000    90.00000    90.00000  Step:          76  Bead:       0 positions{angstrom}  cell{angstrom}
       O -3.17248e+00  1.06876e+00  3.33766e-01
       H -3.10474e+00  1.36284e-01  4.44830e-01
       H -2.41809e+00  1.35372e+00 -1.71659e-01
       H -3.50519e+00  1.61596e+00  1.11450e+00
4
# CELL(abcABC): 1000.00000  1000.00000  1000.00000    90.00000    90.00000    90.00000  Step:          77  Bead:       0 positions{angstrom}  cell{angstrom}
       O -3.17367e+00  1.06756e+00  3.32406e-01
       H -3.09560e+00  1.43037e-01  4.47574e-01
       H -2.41038e+00  1.36752e+00 -1.52994e-01
       H -3.50318e+00  1.61446e+00  1.11468e+00
4
# CELL(abcABC): 1000.00000  1000.00000  1000.00000    90.00000    90.00000    90.00000  Step:          78  Bead:       0 positions{angstrom}  cell{angstrom}
       O -3.17466e+00  1.06649e+00  3.31241e-01
       H -3.08843e+00  1.46326e-01  4.49617e-01
       H -2.40268e+00  1.38262e+00 -1.34849e-01
       H -3.50231e+00  1.61314e+00  1.11299e+00
4
# CELL(abcABC): 1000.00000  1000.00000  1000.00000    90.00000    90.00000    90.00000  Step:          79  Bead:       0 positions{angstrom}  cell{angstrom}
       O -3.17555e+00  1.06569e+00  3.30068e-01
       H -3.08264e+00  1.46850e-01  4.53181e-01
       H -2.39473e+00  1.39719e+00 -1.17125e-01
       H -3.50191e+00  1.61073e+00  1.11031e+00
4
# CELL(abcABC): 1000.00000  1000.00000  1000.00000    90.00000    90.00000    90.00000  Step:          80  Bead:       0 positions{angstrom}  cell{angstrom}
       O -3.17635e+00  1.06511e+00  3.28805e-01
       H -3.07712e+00  1.44394e-01  4.56960e-01
       H -2.38767e+00  1.41139e+00 -9.84822e-02
       H -3.50182e+00  1.60808e+00  1.10794e+00
4
# CELL(abcABC): 1000.00000  1000.00000  1000.00000    90.00000    90.00000    90.00000  Step:          81  Bead:       0 positions{angstrom}  cell{angstrom}
       O -3.17701e+00  1.06461e+00  3.27621e-01
       H -3.07014e+00  1.40095e-01  4.60201e-01
       H -2.38263e+00  1.42701e+00 -7.97590e-02
       H -3.50341e+00  1.60483e+00  1.10477e+00
4
# CELL(abcABC): 1000.00000  1000.00000  1000.00000    90.00000    90.00000    90.00000  Step:          82  Bead:       0 positions{angstrom}  cell{angstrom}
       O -3.17744e+00  1.06440e+00  3.26362e-01
       H -3.06310e+00  1.33352e-01  4.64122e-01
       H -2.37881e+00  1.44072e+00 -6.12437e-02
       H -3.50746e+00  1.60114e+00  1.10231e+00
4
# CELL(abcABC): 1000.00000  1000.00000  1000.00000    90.00000    90.00000    90.00000  Step:          83  Bead:       0 positions{angstrom}  cell{angstrom}
       O -3.17766e+00  1.06423e+00  3.25142e-01
       H -3.05667e+00  1.26377e-01  4.68162e-01
       H -2.37660e+00  1.45392e+00 -4.29774e-02
       H -3.51251e+00  1.59762e+00  1.09938e+00
4
# CELL(abcABC): 1000.00000  1000.00000  1000.00000    90.00000    90.00000    90.00000  Step:          84  Bead:       0 positions{angstrom}  cell{angstrom}
       O -3.17762e+00  1.06410e+00  3.24011e-01
       H -3.04990e+00  1.19179e-01  4.70635e-01
       H -2.37692e+00  1.46630e+00 -2.52555e-02
       H -3.51963e+00  1.59456e+00  1.09713e+00
4
# CELL(abcABC): 1000.00000  1000.00000  1000.00000    90.00000    90.00000    90.00000  Step:          85  Bead:       0 positions{angstrom}  cell{angstrom}