4
# CELL(abcABC): 1000.00000  1000.00000  1000.00000    90.00000    90.00000    90.00000  Step:           0  Bead:       0 positions{angstrom}  cell{angstrom}
       O -3.16396e+00  1.08201e+00  3.59118e-01
       H -3.30833e+00  4.42802e-01  1.09513e+00
       H -2.32411e+00  1.51843e+00  3.90872e-01
       H -3.53078e+00  9.34383e-01 -5.00768e-01
4
# CELL(abcABC): 1000.00000  1000.00000  1000.00000    90.00000    90.00000    90.00000  Step:           1  Bead:       0 positions{angstrom}  cell{angstrom}
       O -3.16230e+00  1.08223e+00  3.58703e-01
       H -3.31803e+00  4.36705e-01  1.09794e+00
       H -2.32317e+00  1.51819e+00  3.91948e-01
       H -3.54837e+00  9.37305e-01 -4.98062e-01
4
# CELL(abcABC): 1000.00000  1000.00000  1000.00000    90.00000    90.00000    90.00000  Step:           2  Bead:       0 positions{angstrom}  cell{angstrom}
       O -3.16081e+00  1.08222e+00  3.58551e-01
       H -3.32765e+00  4.33664e-01  1.09786e+00
       H -2.31901e+00  1.51880e+00  3.92859e-01
       H -3.56662e+00  9.39772e-01 -4.96491e-01
4
# CELL(abcABC): 1000.00000  1000.00000  1000.00000    90.00000    90.00000    90.00000  Step:           3  Bead:       0 positions{angstrom}  cell{angstrom}
       O -3.15936e+00  1.08204e+00  3.58577e-01
       H -3.33629e+00  4.32594e-01  1.09602e+00
       H -2.31388e+00  1.52123e+00  3.94257e-01
       H -3.58601e+00  9.41311e-01 -4.96452e-01
4
# CELL(abcABC): 1000.00000  1000.00000  1000.00000    90.00000    90.00000    90.00000  Step:           4  Bead:       0 positions{angstrom}  cell{angstrom}
       O -3.15803e+00  1.08170e+00  3.58893e-01
       H -3.34454e+00  4.33536e-01  1.08962e+00
       H -2.30750e+00  1.52481e+00  3.95084e-01
       H -3.60523e+00  9.42245e-01 -4.95897e-01
4
# CELL(abcABC): 1000.00000  1000.00000  1000.00000    90.00000    90.00000    90.00000  Step:           5  Bead:       0 positions{angstrom}  cell{angstrom}
       O -3.15669e+00  1.08106e+00  3.59395e-01
       H -3.35286e+00  4.37432e-01  1.07993e+00
       H -2.30192e+00  1.52970e+00  3.96829e-01
       H -3.62388e+00  9.43574e-01 -4.95930e-01
4
# CELL(abcABC): 1000.00000  1000.00000  1000.00000    90.00000    90.00000    90.00000  Step:           6  Bead:       0 positions{angstrom}  cell{angstrom}
       O -3.15529e+00  1.08037e+00  3.59990e-01
       H -3.36040e+00  4.43935e-01  1.06709e+00
       H -2.29791e+00  1.53277e+00  3.97537e-01
       H -3.64252e+00  9.44994e-01 -4.93228e-01
4
# CELL(abcABC): 1000.00000  1000.00000  1000.00000    90.00000    90.00000    90.00000  Step:           7  Bead:       0 positions{angstrom}  cell{angstrom}
       O -3.15399e+00  1.07950e+00  3.60341e-01
       H -3.36586e+00  4.51873e-01  1.05452e+00
       H -2.29549e+00  1.53495e+00  3.99053e-01
       H -3.66006e+00  9.48561e-01 -4.87747e-01
4
# CELL(abcABC): 1000.00000  1000.00000  1000.00000    90.00000    90.00000    90.00000  Step:           8  Bead:       0 positions{angstrom}  cell{angstrom}
       O -3.15283e+00  1.07865e+00  3.60589e-01
       H -3.36988e+00  4.60163e-01  1.04166e+00
       H -2.29374e+00  1.53542e+00  3.99984e-01
       H -3.67632e+00  9.53356e-01 -4.79757e-01
4
# CELL(abcABC): 1000.00000  1000.00000  1000.00000    90.00000    90.00000    90.00000  Step:           9  Bead:       0 positions{angstrom}  cell{angstrom}
       O -3.15173e+00  1.07796e+00  3.60449e-01
       H -3.37361e+00  4.66692e-01  1.03181e+00
       H -2.29275e+00  1.53505e+00  4.01597e-01
       H -3.69092e+00  9.58217e-01 -4.69302e-01
4
# CELL(abcABC): 1000.00000  1000.00000  1000.00000    90.00000    90.00000    90.00000  Step:          10  Bead:       0 positions{angstrom}  cell{angstrom}
       O -3.15067e+00  1.07732e+00  3.60104e-01
       H -3.37712e+00  4.71274e-01  1.02430e+00
       H -2.29336e+00  1.53428e+00  4.02556e-01
       H -3.70374e+00  9.64444e-01 -4.57281e-01
4
# CELL(abcABC): 1000.00000  1000.00000  1000.00000    90.00000    90.00000    90.00000  Step:          11  Bead:       0 positions{angstrom}  cell{angstrom}
       O -3.14962e+00  1.07687e+00  3.59541e-01
       H -3.38035e+00  4.73946e-01  1.01949e+00
       H -2.29687e+00  1.53216e+00  4.03159e-01
       H -3.71365e+00  9.71115e-01 -4.44126e-01
4
# CELL(abcABC): 1000.00000  1000.00000  1000.00000    90.00000    90.00000    90.00000  Step:          12  Bead:       0 positions{angstrom}  cell{angstrom}
       O -3.14875e+00  1.07665e+00  3.58696e-01
       H -3.38224e+00  4.73492e-01  1.01885e+00
       H -2.30161e+00  1.52799e+00  4.02797e-01
       H -3.72077e+00  9.79279e-01 -4.29715e-01
4
# CELL(abcABC): 1000.00000  1000.00000  1000.00000    90.00000    90.00000    90.00000  Step:          13  Bead:       0 positions{angstrom}  cell{angstrom}
       O -3.14805e+00  1.07658e+00  3.57531e-01
       H -3.38384e+00  4.70890e-01  1.02285e+00
       H -2.30547e+00  1.52324e+00  4.02452e-01
       H -3.72649e+00  9.87698e-01 -4.14888e-01
4
# CELL(abcABC): 1000.00000  1000.00000  1000.00000    90.00000    90.00000    90.00000  Step:          14  Bead:       0 positions{angstrom}  cell{angstrom}
       O -3.14754e+00  1.07657e+00  3.56125e-01
       H -3.38359e+00  4.66003e-01  1.03102e+00
       H -2.30855e+00  1.51905e+00  4.02055e-01
       H -3.73173e+00  9.96984e-01 -4.00325e-01
4
# CELL(abcABC): 1000.00000  1000.00000  1000.00000    90.00000    90.00000    90.00000  Step:          15  Bead:       0 positions{angstrom}  cell{angstrom}
       O -3.14713e+00  1.07642e+00  3.54421e-01
       H -3.38447e+00  4.59691e-01  1.04397e+00
       H -2.31139e+00  1.51576e+00  4.01776e-01
       H -3.73457e+00  1.00886e+00 -3.85957e-01
4
# CELL(abcABC): 1000.00000  1000.00000  1000.00000    90.00000    90.00000    90.00000  Step:          16  Bead:       0 positions{angstrom}  cell{angstrom}
       O -3.14692e+00  1.07607e+00  3.52792e-01
       H -3.38310e+00  4.53497e-01  1.05769e+00
       H -2.31310e+00  1.51432e+00  4.01450e-01
       H -3.73748e+00  1.02202e+00 -3.73493e-01
4
# CELL(abcABC): 1000.00000  1000.00000  1000.00000    90.00000    90.00000    90.00000  Step:          17  Bead:       0 positions{angstrom}  cell{angstrom}
       O -3.14677e+00  1.07550e+00  3.51378e-01
       H -3.37952e+00  4.49452e-01  1.07129e+00
       H -2.31435e+00  1.51460e+00  3.99995e-01
       H -3.74219e+00  1.03497e+00 -3.63204e-01
4
# CELL(abcABC): 1000.00000  1000.00000  1000.00000    90.00000    90.00000    90.00000  Step:          18  Bead:       0 positions{angstrom}  cell{angstrom}
       O -3.14670e+00  1.07454e+00  3.50294e-01
       H -3.37531e+00  4.48816e-01  1.08358e+00
       H -2.31301e+00  1.51608e+00  3.98213e-01
       H -3.74895e+00  1.04933e+00 -3.56493e-01
4
# CELL(abcABC): 1000.00000  1000.00000  1000.00000    90.00000    90.00000    90.00000  Step:          19  Bead:       0 positions{angstrom}  cell{angstrom}
       O -3.14678e+00  1.07331e+00  3.49587e-01
       H -3.36901e+00  4.51178e-01  1.09400e+00
       H -2.31129e+00  1.51810e+00  3.95434e-01
       H -3.75563e+00  1.06445e+00 -3.52923e-01
4
# CELL(abcABC): 1000.00000  1000.00000  1000.00000    90.00000    90.00000    90.00000  Step:          20  Bead:       0 positions{angstrom}  cell{angstrom}
       O -3.14689e+00  1.07181e+00  3.49361e-01
       H -3.36102e+00  4.57321e-01  1.10019e+00
       H -2.30980e+00  1.52113e+00  3.92499e-01
       H -3.76331e+00  1.07900e+00 -3.52580e-01
4
# CELL(abcABC): 1000.00000  1000.00000  1000.00000    90.00000    90.00000    90.00000  Step:          21  Bead:       0 positions{angstrom}  cell{angstrom}
       O -3.14710e+00  1.07004e+00  3.49607e-01
       H -3.35208e+00  4.66080e-01  1.10229e+00
       H -2.30639e+00  1.52542e+00  3.90077e-01
       H -3.77242e+00  1.09406e+00 -3.56152e-01
4
# CELL(abcABC): 1000.00000  1000.00000  1000.00000    90.00000    90.00000    90.00000  Step:          22  Bead:       0 positions{angstrom}  cell{angstrom}
       O -3.14737e+00  1.06799e+00  3.50271e-01
       H -3.34325e+00  4.76522e-01  1.10284e+00
       H -2.30114e+00  1.53027e+00  3.85581e-01
       H -3.78224e+00  1.11135e+00 -3.62751e-01
4
# CELL(abcABC): 1000.00000  1000.00000  1000.00000    90.00000    90.00000    90.00000  Step:          23  Bead:       0 positions{angstrom}  cell{angstrom}
       O -3.14764e+00  1.06581e+00  3.51332e-01
       H -3.33370e+00  4.89324e-01  1.10105e+00
       H -2.29607e+00  1.53542e+00  3.81001e-01
       H -3.79247e+00  1.12799e+00 -3.73231e-01
4
# CELL(abcABC): 1000.00000  1000.00000  1000.00000    90.00000    90.00000    90.00000  Step:          24  Bead:       0 positions{angstrom}  cell{angstrom}
       O -3.14790e+00  1.06353e+00  3.52452e-01
       H -3.32351e+00  5.01942e-01  1.09855e+00
       H -2.29240e+00  1.54091e+00  3.76233e-01
       H -3.80221e+00  1.14606e+00 -3.83733e-01
4
# CELL(abcABC): 1000.00000  1000.00000  1000.00000    90.00000    90.00000    90.00000  Step:          25  Bead:       0 positions{angstrom}  cell{angstrom}
       O -3.14805e+00  1.06145e+00  3.53358e-01
       H -3.31382e+00  5.13254e-01  1.09759e+00
       H -2.29152e+00  1.54458e+00  3.71288e-01
       H -3.81037e+00  1.16407e+00 -3.92217e-01
4
# CELL(abcABC): 1000.00000  1000.00000  1000.00000    90.00000    90.00000    90.00000  Step:          26  Bead:       0 positions{angstrom}  cell{angstrom}
       O -3.14811e+00  1.05967e+00  3.53964e-01
       H -3.30506e+00  5.22616e-01  1.09793e+00
       H -2.29309e+00  1.54649e+00  3.65874e-01
       H -3.81671e+00  1.18106e+00 -3.96765e-01
4
# CELL(abcABC): 1000.00000  1000.00000  1000.00000    90.00000    90.00000    90.00000  Step:          27  Bead:       0 positions{angstrom}  cell{angstrom}
       O -3.14818e+00  1.05816e+00  3.54209e-01
       H -3.29773e+00  5.30880e-01  1.10059e+00
       H -2.29738e+00  1.54600e+00  3.59934e-01
       H -3.81864e+00  1.19724e+00 -3.97372e-01
4
# CELL(abcABC): 1000.00000  1000.00000  1000.00000    90.00000    90.00000    90.00000  Step:          28  Bead:       0 positions{angstrom}  cell{angstrom}
       O -3.14812e+00  1.05698e+00  3.53940e-01
       H -3.29294e+00  5.35121e-01  1.10670e+00
       H -2.30349e+00  1.54419e+00  3.54127e-01
       H -3.81822e+00  1.21361e+00 -3.93398e-01
4
# CELL(abcABC): 1000.00000  1000.00000  1000.00000    90.00000    90.00000    90.00000  Step:          29  Bead:       0 positions{angstrom}  cell{angstrom}
       O -3.14805e+00  1.05605e+00  3.53240e-01
       H -3.28898e+00  5.37318e-01  1.11477e+00
       H -2.31239e+00  1.54119e+00  3.48260e-01
       H -3.81446e+00  1.22914e+00 -3.84496e-01
4
# CELL(abcABC): 1000.00000  1000.00000  1000.00000    90.00000    90.00000    90.00000  Step:          30  Bead:       0 positions{angstrom}  cell{angstrom}
       O -3.14797e+00  1.05525e+00  3.52116e-01
       H -3.28609e+00  5.38609e-01  1.12632e+00
       H -2.32248e+00  1.53753e+00  3.42795e-01
       H -3.80850e+00  1.24429e+00 -3.72741e-01
4
# CELL(abcABC): 1000.00000  1000.00000  1000.00000    90.00000    90.00000    90.00000  Step:          31  Bead:       0 positions{angstrom}  cell{angstrom}
       O -3.14806e+00  1.05446e+00  3.50767e-01
       H -3.28293e+00  5.38927e-01  1.13966e+00
       H -2.33177e+00  1.53506e+00  3.36702e-01
       H -3.80084e+00  1.25900e+00 -3.58567e-01
4
# CELL(abcABC): 1000.00000  1000.00000  1000.00000    90.00000    90.00000    90.00000  Step:          32  Bead:       0 positions{angstrom}  cell{angstrom}
       O -3.14820e+00  1.05378e+00  3.49086e-01
       H -3.28184e+00  5.37090e-01  1.15387e+00
       H -2.33932e+00  1.53456e+00  3.31840e-01
       H -3.79227e+00  1.27201e+00 -3.41243e-01
4
# CELL(abcABC): 1000.00000  1000.00000  1000.00000    90.00000    90.00000    90.00000  Step:          33  Bead:       0 positions{angstrom}  cell{angstrom}
       O -3.14837e+00  1.05317e+00  3.47306e-01
       H -3.28227e+00  5.35183e-01  1.16808e+00
       H -2.34454e+00  1.53425e+00  3.27528e-01
       H -3.78393e+00  1.28400e+00 -3.22873e-01
4
# CELL(abcABC): 1000.00000  1000.00000  1000.00000    90.00000    90.00000    90.00000  Step:          34  Bead:       0 positions{angstrom}  cell{angstrom}
       O -3.14842e+00  1.05243e+00  3.45801e-01
       H -3.28304e+00  5.34520e-01  1.17943e+00
       H -2.34907e+00  1.53491e+00  3.23646e-01
       H -3.77780e+00  1.29571e+00 -3.06447e-01
4
# CELL(abcABC): 1000.00000  1000.00000  1000.00000    90.00000    90.00000    90.00000  Step:          35  Bead:       0 positions{angstrom}  cell{angstrom}
       O -3.14848e+00  1.05144e+00  3.44611e-01
       H -3.28275e+00  5.35749e-01  1.18629e+00
       H -2.35195e+00  1.53818e+00  3.20573e-01
       H -3.77424e+00  1.30701e+00 -2.91348e-01
4
# CELL(abcABC): 1000.00000  1000.00000  1000.00000    90.00000    90.00000    90.00000  Step:          36  Bead:       0 positions{angstrom}  cell{angstrom}
       O -3.14849e+00  1.05010e+00  3.43841e-01
       H -3.28280e+00  5.39203e-01  1.18833e+00
       H -2.35179e+00  1.54442e+00  3.16838e-01
       H -3.77413e+00  1.31857e+00 -2.77443e-01
4
# CELL(abcABC): 1000.00000  1000.00000  1000.00000    90.00000    90.00000    90.00000  Step:          37  Bead:       0 positions{angstrom}  cell{angstrom}
       O -3.14842e+00  1.04856e+00  3.43390e-01
       H -3.28277e+00  5.45651e-01  1.18782e+00
       H -2.34874e+00  1.55135e+00  3.12844e-01
       H -3.77839e+00  1.32951e+00 -2.65768e-01
4
# CELL(abcABC): 1000.00000  1000.00000  1000.00000    90.00000    90.00000    90.00000  Step:          38  Bead:       0 positions{angstrom}  cell{angstrom}
       O -3.14798e+00  1.04683e+00  3.43502e-01
       H -3.28431e+00  5.53825e-01  1.18218e+00
       H -2.34403e+00  1.55786e+00  3.08859e-01
       H -3.78856e+00  1.34236e+00 -2.57927e-01
4
# CELL(abcABC): 1000.00000  1000.00000  1000.00000    90.00000    90.00000    90.00000  Step:          39  Bead:       0 positions{angstrom}  cell{angstrom}
       O -3.14748e+00  1.04511e+00  3.43800e-01
       H -3.28573e+00  5.62826e-01  1.17404e+00
       H -2.33815e+00  1.56316e+00  3.06165e-01
       H -3.80098e+00  1.35532e+00 -2.51811e-01
4
# CELL(abcABC): 1000.00000  1000.00000  1000.00000    90.00000    90.00000    90.00000  Step:          40  Bead:       0 positions{angstrom}  cell{angstrom}
       O -3.14679e+00  1.04335e+00  3.44052e-01
       H -3.28784e+00  5.72680e-01  1.16514e+00
       H -2.33208e+00  1.56787e+00  3.05616e-01
       H -3.81578e+00  1.36867e+00 -2.46367e-01
4
# CELL(abcABC): 1000.00000  1000.00000  1000.00000    90.00000    90.00000    90.00000  Step:          41  Bead:       0 positions{angstrom}  cell{angstrom}
       O -3.14590e+00  1.04169e+00  3.44221e-01
       H -3.29111e+00  5.83165e-01  1.15561e+00
       H -2.32624e+00  1.57164e+00  3.06020e-01
       H -3.83259e+00  1.38089e+00 -2.39938e-01
4
# CELL(abcABC): 1000.00000  1000.00000  1000.00000    90.00000    90.00000    90.00000  Step:          42  Bead:       0 positions{angstrom}  cell{angstrom}
       O -3.14492e+00  1.04039e+00  3.44242e-01
       H -3.29397e+00  5.90787e-01  1.14726e+00
       H -2.32165e+00  1.57364e+00  3.07521e-01
       H -3.84987e+00  1.39191e+00 -2.33424e-01
4
# CELL(abcABC): 1000.00000  1000.00000  1000.00000    90.00000    90.00000    90.00000  Step:          43  Bead:       0 positions{angstrom}  cell{angstrom}
       O -3.14376e+00  1.03936e+00  3.43936e-01
       H -3.29825e+00  5.97419e-01  1.14154e+00
       H -2.31885e+00  1.57489e+00  3.10030e-01
       H -3.86670e+00  1.40038e+00 -2.25354e-01
4
# CELL(abcABC): 1000.00000  1000.00000  1000.00000    90.00000    90.00000    90.00000  Step:          44  Bead:       0 positions{angstrom}  cell{angstrom}
       O -3.14246e+00  1.03876e+00  3.43194e-01
       H -3.30352e+00  6.01015e-01  1.13925e+00
       H -2.31813e+00  1.57350e+00  3.12847e-01
       H -3.88281e+00  1.40760e+00 -2.14091e-01
4
# CELL(abcABC): 1000.00000  1000.00000  1000.00000    90.00000    90.00000    90.00000  Step:          45  Bead:       0 positions{angstrom}  cell{angstrom}
       O -3.14100e+00  1.03861e+00  3.42043e-01
       H -3.31045e+00  6.02227e-01  1.14068e+00
       H -2.31880e+00  1.56937e+00  3.15588e-01
       H -3.89849e+00  1.41294e+00 -1.99990e-01
4
# CELL(abcABC): 1000.00000  1000.00000  1000.00000    90.00000    90.00000    90.00000  Step:          46  Bead:       0 positions{angstrom}  cell{angstrom}
       O -3.13958e+00  1.03886e+00  3.40488e-01
       H -3.31826e+00  6.01810e-01  1.14562e+00
       H -2.32128e+00  1.56260e+00  3.18494e-01
       H -3.91066e+00  1.41608e+00 -1.83148e-01
4
# CELL(abcABC): 1000.00000  1000.00000  1000.00000    90.00000    90.00000    90.00000  Step:          47  Bead:       0 positions{angstrom}  cell{angstrom}
       O -3.13824e+00  1.03931e+00  3.38708e-01
       H -3.32637e+00  5.99473e-01  1.15367e+00
       H -2.32464e+00  1.55479e+00  3.21039e-01
       H -3.92049e+00  1.41915e+00 -1.65499e-01
4
# CELL(abcABC): 1000.00000  1000.00000  1000.00000    90.00000    90.00000    90.00000  Step:          48  Bead:       0 positions{angstrom}  cell{angstrom}
       O -3.13708e+00  1.04004e+00  3.36690e-01
       H -3.33375e+00  5.95253e-01  1.16337e+00
       H -2.32818e+00  1.54697e+00  3.23205e-01
       H -3.92802e+00  1.41964e+00 -1.45338e-01
4
# CELL(abcABC): 1000.00000  1000.00000  1000.00000    90.00000    90.00000    90.00000  Step:          49  Bead:       0 positions{angstrom}  cell{angstrom}
       O -3.13624e+00  1.04084e+00  3.34471e-01
       H -3.34022e+00  5.90556e-01  1.17330e+00
       H -2.32980e+00  1.53898e+00  3.25707e-01
       H -3.93317e+00  1.41962e+00 -1.22544e-01
4
# CELL(abcABC): 1000.00000  1000.00000  1000.00000    90.00000    90.00000    90.00000  Step:          50  Bead:       0 positions{angstrom}  cell{angstrom}
       O -3.13558e+00  1.04167e+00  3.32402e-01
       H -3.34563e+00  5.86739e-01  1.18103e+00
       H -2.33170e+00  1.53099e+00  3.28367e-01
       H -3.93631e+00  1.41829e+00 -1.00095e-01
4
# CELL(abcABC): 1000.00000  1000.00000  1000.00000    90.00000    90.00000    90.00000  Step:          51  Bead:       0 positions{angstrom}  cell{angstrom}
       O -3.13532e+00  1.04234e+00  3.30515e-01
       H -3.34963e+00  5.83819e-01  1.18526e+00
       H -2.33174e+00  1.52466e+00  3.30816e-01
       H -3.93641e+00  1.41686e+00 -7.68206e-02
4
# CELL(abcABC): 1000.00000  1000.00000  1000.00000    90.00000    90.00000    90.00000  Step:          52  Bead:       0 positions{angstrom}  cell{angstrom}
       O -3.13542e+00  1.04288e+00  3.29001e-01
       H -3.35203e+00  5.82299e-01  1.18572e+00
       H -2.32950e+00  1.51953e+00  3.31944e-01
       H -3.93466e+00  1.41489e+00 -5.43833e-02
4
# CELL(abcABC): 1000.00000  1000.00000  1000.00000    90.00000    90.00000    90.00000  Step:          53  Bead:       0 positions{angstrom}  cell{angstrom}
       O -3.13588e+00  1.04312e+00  3.27779e-01
       H -3.35171e+00  5.83002e-01  1.18128e+00
       H -2.32503e+00  1.51775e+00  3.33434e-01
       H -3.93226e+00  1.41215e+00 -3.20322e-02
4
# CELL(abcABC): 1000.00000  1000.00000  1000.00000    90.00000    90.00000    90.00000  Step:          54  Bead:       0 positions{angstrom}  cell{angstrom}
       O -3.13654e+00  1.04316e+00  3.26639e-01
       H -3.34935e+00  5.84304e-01  1.17429e+00
       H -2.31895e+00  1.51847e+00  3.35386e-01
       H -3.93017e+00  1.40953e+00 -8.89708e-03
4
# CELL(abcABC): 1000.00000  1000.00000  1000.00000    90.00000    90.00000    90.00000  Step:          55  Bead:       0 positions{angstrom}  cell{angstrom}
       O -3.13735e+00  1.04294e+00  3.25803e-01
       H -3.34554e+00  5.86851e-01  1.16513e+00
       H -2.31160e+00  1.52071e+00  3.37677e-01
       H -3.92846e+00  1.40830e+00  1.12473e-02
4
# CELL(abcABC): 1000.00000  1000.00000  1000.00000    90.00000    90.00000    90.00000  Step:          56  Bead:       0 positions{angstrom}  cell{angstrom}
       O -3.13820e+00  1.04243e+00  3.25272e-01
       H -3.33768e+00  5.90199e-01  1.15462e+00
       H -2.30434e+00  1.52356e+00  3.38510e-01
       H -3.93018e+00  1.41013e+00  2.93585e-02
4
# CELL(abcABC): 1000.00000  1000.00000  1000.00000    90.00000    90.00000    90.00000  Step:          57  Bead:       0 positions{angstrom}  cell{angstrom}
       O -3.13889e+00  1.04170e+00  3.24929e-01
       H -3.32657e+00  5.93910e-01  1.14403e+00
       H -2.29907e+00  1.52627e+00  3.39931e-01
       H -3.93552e+00  1.41536e+00  4.39659e-02
4
# CELL(abcABC): 1000.00000  1000.00000  1000.00000    90.00000    90.00000    90.00000  Step:          58  Bead:       0 positions{angstrom}  cell{angstrom}
       O -3.13947e+00  1.04090e+00  3.24730e-01
       H -3.31300e+00  5.95767e-01  1.13422e+00
       H -2.29508e+00  1.52886e+00  3.41562e-01
       H -3.94389e+00  1.42349e+00  5.53044e-02
4
# CELL(abcABC): 1000.00000  1000.00000  1000.00000    90.00000    90.00000    90.00000  Step:          59  Bead:       0 positions{angstrom}  cell{angstrom}
       O -3.13991e+00  1.04006e+00  3.24448e-01
       H -3.29748e+00  5.95748e-01  1.12696e+00
       H -2.29292e+00  1.53149e+00  3.44345e-01
       H -3.95456e+00  1.43419e+00  6.42558e-02
4
# CELL(abcABC): 1000.00000  1000.00000  1000.00000    90.00000    90.00000    90.00000  Step:          60  Bead:       0 positions{angstrom}  cell{angstrom}
       O -3.14024e+00  1.03937e+00  3.24150e-01
       H -3.28230e+00  5.92654e-01  1.12341e+00
       H -2.29241e+00  1.53283e+00  3.45067e-01
       H -3.96509e+00  1.44692e+00  7.18216e-02
4
# CELL(abcABC): 1000.00000  1000.00000  1000.00000    90.00000    90.00000    90.00000  Step:          61  Bead:       0 positions{angstrom}  cell{angstrom}
       O -3.14057e+00  1.03890e+00  3.23758e-01
       H -3.26575e+00  5.85988e-01  1.12377e+00
       H -2.29314e+00  1.53309e+00  3.43948e-01
       H -3.97569e+00  1.46083e+00  7.87993e-02
4
# CELL(abcABC): 1000.00000  1000.00000  1000.00000    90.00000    90.00000    90.00000  Step:          62  Bead:       0 positions{angstrom}  cell{angstrom}
       O -3.14080e+00  1.03873e+00  3.23370e-01
       H -3.24962e+00  5.75548e-01  1.12757e+00
       H -2.29749e+00  1.53197e+00  3.41685e-01
       H -3.98380e+00  1.47504e+00  8.34283e-02
4
# CELL(abcABC): 1000.00000  1000.00000  1000.00000    90.00000    90.00000    90.00000  Step:          63  Bead:       0 positions{angstrom}  cell{angstrom}
       O -3.14102e+00  1.03868e+00  3.22737e-01
       H -3.23290e+00  5.63707e-01  1.13476e+00
       H -2.30423e+00  1.52935e+00  3.38543e-01
       H -3.99021e+00  1.49035e+00  8.94276e-02
4
# CELL(abcABC): 1000.00000  1000.00000  1000.00000    90.00000    90.00000    90.00000  Step:          64  Bead:       0 positions{angstrom}  cell{angstrom}
       O -3.14141e+00  1.03879e+00  3.22043e-01
       H -3.21474e+00  5.50694e-01  1.14440e+00
       H -2.31200e+00  1.52612e+00  3.34663e-01
       H -3.99440e+00  1.50479e+00  9.46748e-02
4
# CELL(abcABC): 1000.00000  1000.00000  1000.00000    90.00000    90.00000    90.00000  Step:          65  Bead:       0 positions{angstrom}  cell{angstrom}
       O -3.14201e+00  1.03895e+00  3.21442e-01
       H -3.19727e+00  5.37942e-01  1.15272e+00
       H -2.31961e+00  1.52426e+00  3.29797e-01
       H -3.99472e+00  1.51694e+00  1.00754e-01
4
# CELL(abcABC): 1000.00000  1000.00000  1000.00000    90.00000    90.00000    90.00000  Step:          66  Bead:       0 positions{angstrom}  cell{angstrom}
       O -3.14288e+00  1.03903e+00  3.20897e-01
       H -3.18004e+00  5.28412e-01  1.16009e+00
       H -2.32676e+00  1.52154e+00  3.24378e-01
       H -3.99098e+00  1.52789e+00  1.07461e-01
4
# CELL(abcABC): 1000.00000  1000.00000  1000.00000    90.00000    90.00000    90.00000  Step:          67  Bead:       0 positions{angstrom}  cell{angstrom}
       O -3.14396e+00  1.03914e+00  3.20559e-01
       H -3.16296e+00  5.19504e-01  1.16393e+00
       H -2.33225e+00  1.52005e+00  3.18560e-01
       H -3.98550e+00  1.53650e+00  1.14814e-01
4
# CELL(abcABC): 1000.00000  1000.00000  1000.00000    90.00000    90.00000    90.00000  Step:          68  Bead:       0 positions{angstrom}  cell{angstrom}
       O -3.14533e+00  1.03911e+00  3.20621e-01
       H -3.14596e+00  5.12305e-01  1.16404e+00
       H -2.33564e+00  1.52015e+00  3.10176e-01
       H -3.97737e+00  1.54405e+00  1.22094e-01
4
# CELL(abcABC): 1000.00000  1000.00000  1000.00000    90.00000    90.00000    90.00000  Step:          69  Bead:       0 positions{angstrom}  cell{angstrom}
       O -3.14685e+00  1.03908e+00  3.20780e-01
       H -3.13033e+00  5.05724e-01  1.16208e+00
       H -2.33775e+00  1.52199e+00  3.01656e-01
       H -3.96668e+00  1.54935e+00  1.30056e-01
4
# CELL(abcABC): 1000.00000  1000.00000  1000.00000    90.00000    90.00000    90.00000  Step:          70  Bead:       0 positions{angstrom}  cell{angstrom}
       O -3.14868e+00  1.03877e+00  3.21230e-01
       H -3.11556e+00  5.01897e-01  1.15538e+00
       H -2.33774e+00  1.52623e+00  2.91785e-01
       H -3.95247e+00  1.55387e+00  1.39475e-01
4
# CELL(abcABC): 1000.00000  1000.00000  1000.00000    90.00000    90.00000    90.00000  Step:          71  Bead:       0 positions{angstrom}  cell{angstrom}
       O -3.15049e+00  1.03840e+00  3.22018e-01
       H -3.10296e+00  4.98847e-01  1.14388e+00
       H -2.33675e+00  1.53122e+00  2.80410e-01
       H -3.93734e+00  1.55775e+00  1.49854e-01
4
# CELL(abcABC): 1000.00000  1000.00000  1000.00000    90.00000    90.00000    90.00000  Step:          72  Bead:       0 positions{angstrom}  cell{angstrom}
       O -3.15224e+00  1.03782e+00  3.22976e-01
       H -3.09161e+00  4.97399e-01  1.13006e+00
       H -2.33478e+00  1.53718e+00  2.68802e-01
       H -3.92284e+00  1.56242e+00  1.60076e-01
4
# CELL(abcABC): 1000.00000  1000.00000  1000.00000    90.00000    90.00000    90.00000  Step:          73  Bead:       0 positions{angstrom}  cell{angstrom}
       O -3.15373e+00  1.03721e+00  3.24149e-01
       H -3.08207e+00  4.96387e-01  1.11464e+00
       H -2.33284e+00  1.54372e+00  2.56379e-01
       H -3.91073e+00  1.56667e+00  1.69292e-01
4
# CELL(abcABC): 1000.00000  1000.00000  1000.00000    90.00000    90.00000    90.00000  Step:          74  Bead:       0 positions{angstrom}  cell{angstrom}
       O -3.15491e+00  1.03653e+00  3.25532e-01
       H -3.07385e+00  4.95135e-01  1.09788e+00
       H -2.33172e+00  1.54987e+00  2.42130e-01
       H -3.90136e+00  1.57259e+00  1.78345e-01
4
# CELL(abcABC): 1000.00000  1000.00000  1000.00000    90.00000    90.00000    90.00000  Step:          75  Bead:       0 positions{angstrom}  cell{angstrom}
       O -3.15551e+00  1.03596e+00  3.26855e-01
       H -3.06763e+00  4.91508e-01  1.08212e+00
       H -2.33267e+00  1.55441e+00  2.28195e-01
       H -3.89708e+00  1.58069e+00  1.87039e-01
4
# CELL(abcABC): 1000.00000  1000.00000  1000.00000    90.00000    90.00000    90.00000  Step:          76  Bead:       0 positions{angstrom}  cell{angstrom}
       O -3.15576e+00  1.03543e+00  3.27880e-01
       H -3.06186e+00  4.85757e-01  1.07046e+00
       H -2.33559e+00  1.55757e+00  2.14136e-01
       H -3.89600e+00  1.59159e+00  1.96495e-01
4
# CELL(abcABC): 1000.00000  1000.00000  1000.00000    90.00000    90.00000    90.00000  Step:          77  Bead:       0 positions{angstrom}  cell{angstrom}
       O -3.15551e+00  1.03513e+00  3.28611e-01
       H -3.05725e+00  4.77964e-01  1.06270e+00
       H -2.34086e+00  1.55935e+00  2.00681e-01
       H -3.89917e+00  1.60250e+00  2.06096e-01
4
# CELL(abcABC): 1000.00000  1000.00000  1000.00000    90.00000    90.00000    90.00000  Step:          78  Bead:       0 positions{angstrom}  cell{angstrom}
       O -3.15488e+00  1.03513e+00  3.29211e-01
       H -3.05474e+00  4.66406e-01  1.05817e+00
       H -2.34692e+00  1.55999e+00  1.87124e-01
       H -3.90570e+00  1.61331e+00  2.14671e-01
4
# CELL(abcABC): 1000.00000  1000.00000  1000.00000    90.00000    90.00000    90.00000  Step:          79  Bead:       0 positions{angstrom}  cell{angstrom}
       O -3.15406e+00  1.03557e+00  3.29491e-01
       H -3.05371e+00  4.52645e-01  1.05863e+00
       H -2.35278e+00  1.55804e+00  1.73646e-01
       H -3.91379e+00  1.62205e+00  2.23240e-01
4
# CELL(abcABC): 1000.00000  1000.00000  1000.00000    90.00000    90.00000    90.00000  Step:          80  Bead:       0 positions{angstrom}  cell{angstrom}
       O -3.15320e+00  1.03634e+00  3.29435e-01
       H -3.05309e+00  4.37371e-01  1.06171e+00
       H -2.35867e+00  1.55425e+00  1.61578e-01
       H -3.92220e+00  1.62885e+00  2.33106e-01
4
# CELL(abcABC): 1000.00000  1000.00000  1000.00000    90.00000    90.00000    90.00000  Step:          81  Bead:       0 positions{angstrom}  cell{angstrom}
       O -3.15237e+00  1.03724e+00  3.29299e-01
       H -3.05115e+00  4.22391e-01  1.06538e+00
       H -2.36481e+00  1.55109e+00  1.50076e-01
       H -3.93131e+00  1.63285e+00  2.43104e-01
4
# CELL(abcABC): 1000.00000  1000.00000  1000.00000    90.00000    90.00000    90.00000  Step:          82  Bead:       0 positions{angstrom}  cell{angstrom}
       O -3.15157e+00  1.03844e+00  3.29012e-01
       H -3.04929e+00  4.07447e-01  1.06966e+00
       H -2.36956e+00  1.54591e+00  1.38850e-01
       H -3.94100e+00  1.63379e+00  2.54614e-01
4
# CELL(abcABC): 1000.00000  1000.00000  1000.00000    90.00000    90.00000    90.00000  Step:          83  Bead:       0 positions{angstrom}  cell{angstrom}
       O -3.15094e+00  1.03969e+00  3.28761e-01
       H -3.04815e+00  3.94697e-01  1.07290e+00
       H -2.37262e+00  1.54075e+00  1.27869e-01
       H -3.94911e+00  1.63201e+00  2.66326e-01
4
# CELL(abcABC): 1000.00000  1000.00000  1000.00000    90.00000    90.00000    90.00000  Step:          84  Bead:       0 positions{angstrom}  cell{angstrom}
       O -3.15047e+00  1.04095e+00  3.28654e-01
       H -3.04667e+00  3.83883e-01  1.07266e+00
       H -2.37455e+00  1.53580e+00  1.16905e-01
       H -3.95614e+00  1.62773e+00  2.79227e-01
4
# CELL(abcABC): 1000.00000  1000.00000  1000.00000    90.00000    90.00000    90.00000  Step:          85  Bead:       0 positions{angstrom}  cell{angstrom}