4
# CELL(abcABC): 1000.00000  1000.00000  1000.00000    90.00000    90.00000    90.00000  Step:           0  Bead:       0 positions{angstrom}  cell{angstrom}
       O -3.16258e+00  1.06290e+00  3.49788e-01
       H -2.23140e+00  8.47685e-01  2.79948e-01
       H -3.14788e+00  2.00652e+00  4.22149e-01
       H -3.80580e+00  3.44380e-01  4.31240e-01
4
# CELL(abcABC): 1000.00000  1000.00000  1000.00000    90.00000    90.00000    90.00000  Step:           1  Bead:       0 positions{angstrom}  cell{angstrom}
       O -3.16078e+00  1.06313e+00  3.49281e-01
       H -2.24223e+00  8.40726e-01  2.83972e-01
       H -3.14823e+00  2.00623e+00  4.23002e-01
       H -3.82327e+00  3.47914e-01  4.34408e-01
4
# CELL(abcABC): 1000.00000  1000.00000  1000.00000    90.00000    90.00000    90.00000  Step:           2  Bead:       0 positions{angstrom}  cell{angstrom}
       O -3.15893e+00  1.06325e+00  3.48856e-01
       H -2.25399e+00  8.34223e-01  2.87955e-01
       H -3.14781e+00  2.00671e+00  4.23251e-01
       H -3.84126e+00  3.52034e-01  4.36929e-01
4
# CELL(abcABC): 1000.00000  1000.00000  1000.00000    90.00000    90.00000    90.00000  Step:           3  Bead:       0 positions{angstrom}  cell{angstrom}
       O -3.15704e+00  1.06334e+00  3.48458e-01
       H -2.26420e+00  8.26432e-01  2.93074e-01
       H -3.14833e+00  2.00904e+00  4.23562e-01
       H -3.86051e+00  3.56059e-01  4.37814e-01
4
# CELL(abcABC): 1000.00000  1000.00000  1000.00000    90.00000    90.00000    90.00000  Step:           4  Bead:       0 positions{angstrom}  cell{angstrom}
       O -3.15530e+00  1.06347e+00  3.48259e-01
       H -2.27200e+00  8.16984e-01  2.96398e-01
       H -3.14868e+00  2.01249e+00  4.22873e-01
       H -3.88002e+00  3.60078e-01  4.38342e-01
4
# CELL(abcABC): 1000.00000  1000.00000  1000.00000    90.00000    90.00000    90.00000  Step:           5  Bead:       0 positions{angstrom}  cell{angstrom}
       O -3.15368e+00  1.06351e+00  3.48229e-01
       H -2.27676e+00  8.06842e-01  2.98713e-01
       H -3.14992e+00  2.01714e+00  4.22657e-01
       H -3.89974e+00  3.64866e-01  4.36714e-01
4
# CELL(abcABC): 1000.00000  1000.00000  1000.00000    90.00000    90.00000    90.00000  Step:           6  Bead:       0 positions{angstrom}  cell{angstrom}
       O -3.15223e+00  1.06371e+00  3.48371e-01
       H -2.27700e+00  7.96166e-01  2.99335e-01
       H -3.15180e+00  2.01960e+00  4.20917e-01
       H -3.92060e+00  3.69898e-01  4.35579e-01
4
# CELL(abcABC): 1000.00000  1000.00000  1000.00000    90.00000    90.00000    90.00000  Step:           7  Bead:       0 positions{angstrom}  cell{angstrom}
       O -3.15112e+00  1.06390e+00  3.48451e-01
       H -2.27153e+00  7.84892e-01  3.00538e-01
       H -3.15361e+00  2.02074e+00  4.19477e-01
       H -3.94183e+00  3.77049e-01  4.34536e-01
4
# CELL(abcABC): 1000.00000  1000.00000  1000.00000    90.00000    90.00000    90.00000  Step:           8  Bead:       0 positions{angstrom}  cell{angstrom}
       O -3.15035e+00  1.06416e+00  3.48702e-01
       H -2.26192e+00  7.73541e-01  3.00487e-01
       H -3.15392e+00  2.01977e+00  4.16958e-01
       H -3.96341e+00  3.85273e-01  4.33129e-01
4
# CELL(abcABC): 1000.00000  1000.00000  1000.00000    90.00000    90.00000    90.00000  Step:           9  Bead:       0 positions{angstrom}  cell{angstrom}
       O -3.14977e+00  1.06450e+00  3.48920e-01
       H -2.25084e+00  7.61958e-01  3.01095e-01
       H -3.15248e+00  2.01783e+00  4.14671e-01
       H -3.98509e+00  3.93322e-01  4.31341e-01
4
# CELL(abcABC): 1000.00000  1000.00000  1000.00000    90.00000    90.00000    90.00000  Step:          10  Bead:       0 positions{angstrom}  cell{angstrom}
       O -3.14925e+00  1.06471e+00  3.49338e-01
       H -2.23994e+00  7.51698e-01  3.00596e-01
       H -3.14997e+00  2.01570e+00  4.11362e-01
       H -4.00673e+00  4.02440e-01  4.28516e-01
4
# CELL(abcABC): 1000.00000  1000.00000  1000.00000    90.00000    90.00000    90.00000  Step:          11  Bead:       0 positions{angstrom}  cell{angstrom}
       O -3.14870e+00  1.06479e+00  3.49962e-01
       H -2.23060e+00  7.44177e-01  2.98545e-01
       H -3.14770e+00  2.01270e+00  4.07409e-01
       H -4.02709e+00  4.11662e-01  4.24626e-01
4
# CELL(abcABC): 1000.00000  1000.00000  1000.00000    90.00000    90.00000    90.00000  Step:          12  Bead:       0 positions{angstrom}  cell{angstrom}
       O -3.14820e+00  1.06474e+00  3.50712e-01
       H -2.22288e+00  7.39050e-01  2.96015e-01
       H -3.14442e+00  2.00832e+00  4.02285e-01
       H -4.04605e+00  4.22010e-01  4.20376e-01
4
# CELL(abcABC): 1000.00000  1000.00000  1000.00000    90.00000    90.00000    90.00000  Step:          13  Bead:       0 positions{angstrom}  cell{angstrom}
       O -3.14765e+00  1.06445e+00  3.51480e-01
       H -2.21882e+00  7.37465e-01  2.93699e-01
       H -3.13873e+00  2.00426e+00  3.97071e-01
       H -4.06456e+00  4.32241e-01  4.15711e-01
4
# CELL(abcABC): 1000.00000  1000.00000  1000.00000    90.00000    90.00000    90.00000  Step:          14  Bead:       0 positions{angstrom}  cell{angstrom}
       O -3.14703e+00  1.06385e+00  3.52230e-01
       H -2.21745e+00  7.38671e-01  2.91914e-01
       H -3.13144e+00  2.00182e+00  3.91808e-01
       H -4.08298e+00  4.42968e-01  4.10844e-01
4
# CELL(abcABC): 1000.00000  1000.00000  1000.00000    90.00000    90.00000    90.00000  Step:          15  Bead:       0 positions{angstrom}  cell{angstrom}
       O -3.14623e+00  1.06284e+00  3.52765e-01
       H -2.22210e+00  7.42333e-01  2.92531e-01
       H -3.12375e+00  2.00125e+00  3.86788e-01
       H -4.09876e+00  4.55904e-01  4.06767e-01
4
# CELL(abcABC): 1000.00000  1000.00000  1000.00000    90.00000    90.00000    90.00000  Step:          16  Bead:       0 positions{angstrom}  cell{angstrom}
       O -3.14539e+00  1.06149e+00  3.53283e-01
       H -2.22906e+00  7.48166e-01  2.93109e-01
       H -3.11536e+00  2.00303e+00  3.81928e-01
       H -4.11350e+00  4.69731e-01  4.02817e-01
4
# CELL(abcABC): 1000.00000  1000.00000  1000.00000    90.00000    90.00000    90.00000  Step:          17  Bead:       0 positions{angstrom}  cell{angstrom}
       O -3.14444e+00  1.05994e+00  3.53774e-01
       H -2.23757e+00  7.56373e-01  2.94205e-01
       H -3.10731e+00  2.00630e+00  3.76227e-01
       H -4.12811e+00  4.82904e-01  3.99636e-01
4
# CELL(abcABC): 1000.00000  1000.00000  1000.00000    90.00000    90.00000    90.00000  Step:          18  Bead:       0 positions{angstrom}  cell{angstrom}
       O -3.14351e+00  1.05820e+00  3.54238e-01
       H -2.24790e+00  7.66531e-01  2.95719e-01
       H -3.09769e+00  2.00964e+00  3.70560e-01
       H -4.14215e+00  4.96958e-01  3.96427e-01
4
# CELL(abcABC): 1000.00000  1000.00000  1000.00000    90.00000    90.00000    90.00000  Step:          19  Bead:       0 positions{angstrom}  cell{angstrom}
       O -3.14284e+00  1.05654e+00  3.54664e-01
       H -2.25666e+00  7.76701e-01  2.97821e-01
       H -3.08861e+00  2.01168e+00  3.64343e-01
       H -4.15317e+00  5.11121e-01  3.93770e-01
4
# CELL(abcABC): 1000.00000  1000.00000  1000.00000    90.00000    90.00000    90.00000  Step:          20  Bead:       0 positions{angstrom}  cell{angstrom}
       O -3.14243e+00  1.05506e+00  3.55138e-01
       H -2.26230e+00  7.86504e-01  2.98519e-01
       H -3.08049e+00  2.01249e+00  3.58490e-01
       H -4.16211e+00  5.23971e-01  3.91408e-01
4
# CELL(abcABC): 1000.00000  1000.00000  1000.00000    90.00000    90.00000    90.00000  Step:          21  Bead:       0 positions{angstrom}  cell{angstrom}
       O -3.14246e+00  1.05381e+00  3.55684e-01
       H -2.26387e+00  7.94205e-01  2.97891e-01
       H -3.07098e+00  2.01214e+00  3.53741e-01
       H -4.16964e+00  5.36530e-01  3.88114e-01
4
# CELL(abcABC): 1000.00000  1000.00000  1000.00000    90.00000    90.00000    90.00000  Step:          22  Bead:       0 positions{angstrom}  cell{angstrom}
       O -3.14294e+00  1.05276e+00  3.56336e-01
       H -2.26146e+00  7.98916e-01  2.97980e-01
       H -3.05970e+00  2.01014e+00  3.47570e-01
       H -4.17564e+00  5.50530e-01  3.83855e-01
4
# CELL(abcABC): 1000.00000  1000.00000  1000.00000    90.00000    90.00000    90.00000  Step:          23  Bead:       0 positions{angstrom}  cell{angstrom}
       O -3.14383e+00  1.05199e+00  3.57185e-01
       H -2.25404e+00  8.01816e-01  2.97303e-01
       H -3.04803e+00  2.00679e+00  3.41997e-01
       H -4.18062e+00  5.63189e-01  3.76618e-01
4
# CELL(abcABC): 1000.00000  1000.00000  1000.00000    90.00000    90.00000    90.00000  Step:          24  Bead:       0 positions{angstrom}  cell{angstrom}
       O -3.14503e+00  1.05140e+00  3.58043e-01
       H -2.24240e+00  8.01468e-01  2.96441e-01
       H -3.03662e+00  2.00291e+00  3.36929e-01
       H -4.18467e+00  5.76799e-01  3.68934e-01
4
# CELL(abcABC): 1000.00000  1000.00000  1000.00000    90.00000    90.00000    90.00000  Step:          25  Bead:       0 positions{angstrom}  cell{angstrom}
       O -3.14632e+00  1.05113e+00  3.58790e-01
       H -2.22914e+00  7.98216e-01  2.96453e-01
       H -3.02638e+00  1.99708e+00  3.32356e-01
       H -4.18763e+00  5.90134e-01  3.61642e-01
4
# CELL(abcABC): 1000.00000  1000.00000  1000.00000    90.00000    90.00000    90.00000  Step:          26  Bead:       0 positions{angstrom}  cell{angstrom}
       O -3.14759e+00  1.05112e+00  3.59467e-01
       H -2.21633e+00  7.92839e-01  2.96030e-01
       H -3.01679e+00  1.99025e+00  3.27940e-01
       H -4.18992e+00  6.02524e-01  3.55734e-01
4
# CELL(abcABC): 1000.00000  1000.00000  1000.00000    90.00000    90.00000    90.00000  Step:          27  Bead:       0 positions{angstrom}  cell{angstrom}
       O -3.14881e+00  1.05119e+00  3.60106e-01
       H -2.20607e+00  7.87391e-01  2.95381e-01
       H -3.00821e+00  1.98261e+00  3.23565e-01
       H -4.18942e+00  6.14462e-01  3.50617e-01
4
# CELL(abcABC): 1000.00000  1000.00000  1000.00000    90.00000    90.00000    90.00000  Step:          28  Bead:       0 positions{angstrom}  cell{angstrom}
       O -3.14973e+00  1.05129e+00  3.60603e-01
       H -2.20070e+00  7.79731e-01  2.95153e-01
       H -3.00009e+00  1.97603e+00  3.19822e-01
       H -4.18833e+00  6.27173e-01  3.46689e-01
4
# CELL(abcABC): 1000.00000  1000.00000  1000.00000    90.00000    90.00000    90.00000  Step:          29  Bead:       0 positions{angstrom}  cell{angstrom}
       O -3.15037e+00  1.05129e+00  3.61028e-01
       H -2.19935e+00  7.71932e-01  2.94147e-01
       H -2.99396e+00  1.97114e+00  3.16443e-01
       H -4.18555e+00  6.39772e-01  3.44334e-01
4
# CELL(abcABC): 1000.00000  1000.00000  1000.00000    90.00000    90.00000    90.00000  Step:          30  Bead:       0 positions{angstrom}  cell{angstrom}
       O -3.15070e+00  1.05109e+00  3.61322e-01
       H -2.20275e+00  7.64821e-01  2.94580e-01
       H -2.98912e+00  1.96851e+00  3.13830e-01
       H -4.18186e+00  6.52785e-01  3.41841e-01
4
# CELL(abcABC): 1000.00000  1000.00000  1000.00000    90.00000    90.00000    90.00000  Step:          31  Bead:       0 positions{angstrom}  cell{angstrom}
       O -3.15084e+00  1.05064e+00  3.61579e-01
       H -2.20959e+00  7.57558e-01  2.95891e-01
       H -2.98472e+00  1.96952e+00  3.10923e-01
       H -4.17714e+00  6.66114e-01  3.39355e-01
4
# CELL(abcABC): 1000.00000  1000.00000  1000.00000    90.00000    90.00000    90.00000  Step:          32  Bead:       0 positions{angstrom}  cell{angstrom}
       O -3.15067e+00  1.05019e+00  3.61561e-01
       H -2.22188e+00  7.47988e-01  2.98483e-01
       H -2.98089e+00  1.97394e+00  3.09577e-01
       H -4.17133e+00  6.78360e-01  3.38399e-01
4
# CELL(abcABC): 1000.00000  1000.00000  1000.00000    90.00000    90.00000    90.00000  Step:          33  Bead:       0 positions{angstrom}  cell{angstrom}
       O -3.15026e+00  1.04986e+00  3.61342e-01
       H -2.23830e+00  7.37022e-01  3.02887e-01
       H -2.97785e+00  1.97863e+00  3.09114e-01
       H -4.16446e+00  6.89909e-01  3.37938e-01
4
# CELL(abcABC): 1000.00000  1000.00000  1000.00000    90.00000    90.00000    90.00000  Step:          34  Bead:       0 positions{angstrom}  cell{angstrom}
       O -3.14958e+00  1.04964e+00  3.61140e-01
       H -2.25639e+00  7.24752e-01  3.07550e-01
       H -2.97777e+00  1.98319e+00  3.09406e-01
       H -4.15721e+00  7.01083e-01  3.36186e-01
4
# CELL(abcABC): 1000.00000  1000.00000  1000.00000    90.00000    90.00000    90.00000  Step:          35  Bead:       0 positions{angstrom}  cell{angstrom}
       O -3.14892e+00  1.04955e+00  3.60879e-01
       H -2.27315e+00  7.10824e-01  3.11690e-01
       H -2.97997e+00  1.98827e+00  3.10801e-01
       H -4.14879e+00  7.11344e-01  3.34795e-01
4
# CELL(abcABC): 1000.00000  1000.00000  1000.00000    90.00000    90.00000    90.00000  Step:          36  Bead:       0 positions{angstrom}  cell{angstrom}
       O -3.14838e+00  1.04962e+00  3.60593e-01
       H -2.28844e+00  6.94979e-01  3.15334e-01
       H -2.98290e+00  1.99348e+00  3.11777e-01
       H -4.13909e+00  7.20985e-01  3.34708e-01
4
# CELL(abcABC): 1000.00000  1000.00000  1000.00000    90.00000    90.00000    90.00000  Step:          37  Bead:       0 positions{angstrom}  cell{angstrom}
       O -3.14810e+00  1.05003e+00  3.60166e-01
       H -2.30057e+00  6.77790e-01  3.20608e-01
       H -2.98594e+00  1.99620e+00  3.12647e-01
       H -4.12840e+00  7.28842e-01  3.35352e-01
4
# CELL(abcABC): 1000.00000  1000.00000  1000.00000    90.00000    90.00000    90.00000  Step:          38  Bead:       0 positions{angstrom}  cell{angstrom}
       O -3.14793e+00  1.05077e+00  3.59879e-01
       H -2.31042e+00  6.58229e-01  3.24484e-01
       H -2.98915e+00  1.99554e+00  3.13557e-01
       H -4.11810e+00  7.37371e-01  3.35124e-01
4
# CELL(abcABC): 1000.00000  1000.00000  1000.00000    90.00000    90.00000    90.00000  Step:          39  Bead:       0 positions{angstrom}  cell{angstrom}
       O -3.14822e+00  1.05193e+00  3.59468e-01
       H -2.31613e+00  6.36181e-01  3.28622e-01
       H -2.99171e+00  1.99155e+00  3.15634e-01
       H -4.10523e+00  7.45037e-01  3.35429e-01
4
# CELL(abcABC): 1000.00000  1000.00000  1000.00000    90.00000    90.00000    90.00000  Step:          40  Bead:       0 positions{angstrom}  cell{angstrom}
       O -3.14883e+00  1.05325e+00  3.58851e-01
       H -2.31914e+00  6.13086e-01  3.33488e-01
       H -2.99328e+00  1.98615e+00  3.19568e-01
       H -4.09095e+00  7.52536e-01  3.36420e-01
4
# CELL(abcABC): 1000.00000  1000.00000  1000.00000    90.00000    90.00000    90.00000  Step:          41  Bead:       0 positions{angstrom}  cell{angstrom}
       O -3.14966e+00  1.05463e+00  3.58157e-01
       H -2.32100e+00  5.90515e-01  3.37723e-01
       H -2.99305e+00  1.98047e+00  3.24013e-01
       H -4.07613e+00  7.58867e-01  3.38757e-01
4
# CELL(abcABC): 1000.00000  1000.00000  1000.00000    90.00000    90.00000    90.00000  Step:          42  Bead:       0 positions{angstrom}  cell{angstrom}
       O -3.15075e+00  1.05610e+00  3.57492e-01
       H -2.32129e+00  5.66934e-01  3.41427e-01
       H -2.99097e+00  1.97518e+00  3.28994e-01
       H -4.06056e+00  7.64475e-01  3.40630e-01
4
# CELL(abcABC): 1000.00000  1000.00000  1000.00000    90.00000    90.00000    90.00000  Step:          43  Bead:       0 positions{angstrom}  cell{angstrom}
       O -3.15190e+00  1.05732e+00  3.56823e-01
       H -2.32321e+00  5.46192e-01  3.44567e-01
       H -2.98682e+00  1.97250e+00  3.34357e-01
       H -4.04460e+00  7.68496e-01  3.42738e-01
4
# CELL(abcABC): 1000.00000  1000.00000  1000.00000    90.00000    90.00000    90.00000  Step:          44  Bead:       0 positions{angstrom}  cell{angstrom}
       O -3.15301e+00  1.05831e+00  3.56146e-01
       H -2.32734e+00  5.27738e-01  3.46847e-01
       H -2.98045e+00  1.97117e+00  3.39390e-01
       H -4.02912e+00  7.72588e-01  3.46183e-01
4
# CELL(abcABC): 1000.00000  1000.00000  1000.00000    90.00000    90.00000    90.00000  Step:          45  Bead:       0 positions{angstrom}  cell{angstrom}
       O -3.15397e+00  1.05900e+00  3.55527e-01
       H -2.33515e+00  5.13070e-01  3.48194e-01
       H -2.97118e+00  1.97114e+00  3.43741e-01
       H -4.01537e+00  7.76310e-01  3.50310e-01
4
# CELL(abcABC): 1000.00000  1000.00000  1000.00000    90.00000    90.00000    90.00000  Step:          46  Bead:       0 positions{angstrom}  cell{angstrom}
       O -3.15488e+00  1.05939e+00  3.54948e-01
       H -2.34632e+00  5.02990e-01  3.48800e-01
       H -2.95983e+00  1.97194e+00  3.47710e-01
       H -4.00110e+00  7.79442e-01  3.54916e-01
4
# CELL(abcABC): 1000.00000  1000.00000  1000.00000    90.00000    90.00000    90.00000  Step:          47  Bead:       0 positions{angstrom}  cell{angstrom}
       O -3.15567e+00  1.05937e+00  3.54510e-01
       H -2.36041e+00  4.96527e-01  3.49319e-01
       H -2.94629e+00  1.97417e+00  3.50853e-01
       H -3.98799e+00  7.83973e-01  3.58207e-01
4
# CELL(abcABC): 1000.00000  1000.00000  1000.00000    90.00000    90.00000    90.00000  Step:          48  Bead:       0 positions{angstrom}  cell{angstrom}
       O -3.15637e+00  1.05922e+00  3.54085e-01
       H -2.37620e+00  4.92428e-01  3.49771e-01
       H -2.93098e+00  1.97734e+00  3.53238e-01
       H -3.97651e+00  7.87199e-01  3.62125e-01
4
# CELL(abcABC): 1000.00000  1000.00000  1000.00000    90.00000    90.00000    90.00000  Step:          49  Bead:       0 positions{angstrom}  cell{angstrom}
       O -3.15705e+00  1.05898e+00  3.53573e-01
       H -2.39308e+00  4.90467e-01  3.50414e-01
       H -2.91310e+00  1.97954e+00  3.55655e-01
       H -3.96671e+00  7.90842e-01  3.67186e-01
4
# CELL(abcABC): 1000.00000  1000.00000  1000.00000    90.00000    90.00000    90.00000  Step:          50  Bead:       0 positions{angstrom}  cell{angstrom}
       O -3.15754e+00  1.05883e+00  3.53193e-01
       H -2.41019e+00  4.90160e-01  3.50354e-01
       H -2.89602e+00  1.97935e+00  3.58002e-01
       H -3.95888e+00  7.93667e-01  3.70930e-01
4
# CELL(abcABC): 1000.00000  1000.00000  1000.00000    90.00000    90.00000    90.00000  Step:          51  Bead:       0 positions{angstrom}  cell{angstrom}
       O -3.15807e+00  1.05882e+00  3.52865e-01
       H -2.42613e+00  4.89705e-01  3.49420e-01
       H -2.87876e+00  1.97720e+00  3.59980e-01
       H -3.95171e+00  7.96367e-01  3.75091e-01
4
# CELL(abcABC): 1000.00000  1000.00000  1000.00000    90.00000    90.00000    90.00000  Step:          52  Bead:       0 positions{angstrom}  cell{angstrom}
       O -3.15867e+00  1.05917e+00  3.52692e-01
       H -2.43961e+00  4.88018e-01  3.48046e-01
       H -2.86168e+00  1.97191e+00  3.60529e-01
       H -3.94583e+00  7.97917e-01  3.78659e-01
4
# CELL(abcABC): 1000.00000  1000.00000  1000.00000    90.00000    90.00000    90.00000  Step:          53  Bead:       0 positions{angstrom}  cell{angstrom}
       O -3.15941e+00  1.05980e+00  3.52534e-01
       H -2.44863e+00  4.84799e-01  3.45307e-01
       H -2.84508e+00  1.96557e+00  3.61382e-01
       H -3.94168e+00  7.97462e-01  3.83066e-01
4
# CELL(abcABC): 1000.00000  1000.00000  1000.00000    90.00000    90.00000    90.00000  Step:          54  Bead:       0 positions{angstrom}  cell{angstrom}
       O -3.16025e+00  1.06085e+00  3.52154e-01
       H -2.45348e+00  4.78095e-01  3.43220e-01
       H -2.82928e+00  1.95777e+00  3.62693e-01
       H -3.93924e+00  7.95236e-01  3.89871e-01
4
# CELL(abcABC): 1000.00000  1000.00000  1000.00000    90.00000    90.00000    90.00000  Step:          55  Bead:       0 positions{angstrom}  cell{angstrom}
       O -3.16123e+00  1.06222e+00  3.51771e-01
       H -2.45509e+00  4.69085e-01  3.41524e-01
       H -2.81387e+00  1.94842e+00  3.64386e-01
       H -3.93750e+00  7.91880e-01  3.95948e-01
4
# CELL(abcABC): 1000.00000  1000.00000  1000.00000    90.00000    90.00000    90.00000  Step:          56  Bead:       0 positions{angstrom}  cell{angstrom}
       O -3.16231e+00  1.06376e+00  3.51411e-01
       H -2.45166e+00  4.58540e-01  3.40098e-01
       H -2.79911e+00  1.93788e+00  3.64718e-01
       H -3.93854e+00  7.88536e-01  4.02752e-01
4
# CELL(abcABC): 1000.00000  1000.00000  1000.00000    90.00000    90.00000    90.00000  Step:          57  Bead:       0 positions{angstrom}  cell{angstrom}
       O -3.16333e+00  1.06533e+00  3.51024e-01
       H -2.44526e+00  4.47942e-01  3.38919e-01
       H -2.78580e+00  1.92682e+00  3.65797e-01
       H -3.94206e+00  7.85331e-01  4.09003e-01
4
# CELL(abcABC): 1000.00000  1000.00000  1000.00000    90.00000    90.00000    90.00000  Step:          58  Bead:       0 positions{angstrom}  cell{angstrom}
       O -3.16429e+00  1.06685e+00  3.50661e-01
       H -2.43797e+00  4.37254e-01  3.37365e-01
       H -2.77227e+00  1.91667e+00  3.67327e-01
       H -3.94765e+00  7.81956e-01  4.14789e-01
4
# CELL(abcABC): 1000.00000  1000.00000  1000.00000    90.00000    90.00000    90.00000  Step:          59  Bead:       0 positions{angstrom}  cell{angstrom}
       O -3.16510e+00  1.06811e+00  3.50208e-01
       H -2.43145e+00  4.28572e-01  3.35738e-01
       H -2.75837e+00  1.90875e+00  3.70340e-01
       H -3.95527e+00  7.78620e-01  4.20596e-01
4
# CELL(abcABC): 1000.00000  1000.00000  1000.00000    90.00000    90.00000    90.00000  Step:          60  Bead:       0 positions{angstrom}  cell{angstrom}
       O -3.16568e+00  1.06910e+00  3.49831e-01
       H -2.42880e+00  4.22345e-01  3.34049e-01
       H -2.74349e+00  1.90237e+00  3.71731e-01
       H -3.96353e+00  7.75520e-01  4.26869e-01
4
# CELL(abcABC): 1000.00000  1000.00000  1000.00000    90.00000    90.00000    90.00000  Step:          61  Bead:       0 positions{angstrom}  cell{angstrom}
       O -3.16607e+00  1.06977e+00  3.49520e-01
       H -2.42879e+00  4.18896e-01  3.31967e-01
       H -2.72723e+00  1.89795e+00  3.71786e-01
       H -3.97369e+00  7.72625e-01  4.33845e-01
4
# CELL(abcABC): 1000.00000  1000.00000  1000.00000    90.00000    90.00000    90.00000  Step:          62  Bead:       0 positions{angstrom}  cell{angstrom}
       O -3.16606e+00  1.07020e+00  3.49383e-01
       H -2.43337e+00  4.18042e-01  3.29296e-01
       H -2.71234e+00  1.89488e+00  3.71251e-01
       H -3.98419e+00  7.69854e-01  4.39218e-01
4
# CELL(abcABC): 1000.00000  1000.00000  1000.00000    90.00000    90.00000    90.00000  Step:          63  Bead:       0 positions{angstrom}  cell{angstrom}
       O -3.16566e+00  1.07021e+00  3.49142e-01
       H -2.44127e+00  4.21333e-01  3.26945e-01
       H -2.69838e+00  1.89238e+00  3.70416e-01
       H -3.99655e+00  7.68763e-01  4.46237e-01
4
# CELL(abcABC): 1000.00000  1000.00000  1000.00000    90.00000    90.00000    90.00000  Step:          64  Bead:       0 positions{angstrom}  cell{angstrom}
       O -3.16499e+00  1.07000e+00  3.48913e-01
       H -2.45091e+00  4.27380e-01  3.25403e-01
       H -2.68511e+00  1.89044e+00  3.69444e-01
       H -4.01081e+00  7.68000e-01  4.52383e-01
4
# CELL(abcABC): 1000.00000  1000.00000  1000.00000    90.00000    90.00000    90.00000  Step:          65  Bead:       0 positions{angstrom}  cell{angstrom}
       O -3.16407e+00  1.06960e+00  3.48765e-01
       H -2.46325e+00  4.35464e-01  3.22543e-01
       H -2.67266e+00  1.89003e+00  3.68117e-01
       H -4.02558e+00  7.66666e-01  4.58908e-01
4
# CELL(abcABC): 1000.00000  1000.00000  1000.00000    90.00000    90.00000    90.00000  Step:          66  Bead:       0 positions{angstrom}  cell{angstrom}
       O -3.16298e+00  1.06910e+00  3.48590e-01
       H -2.47611e+00  4.46091e-01  3.20056e-01
       H -2.66197e+00  1.88783e+00  3.66894e-01
       H -4.04063e+00  7.66181e-01  4.65397e-01
4
# CELL(abcABC): 1000.00000  1000.00000  1000.00000    90.00000    90.00000    90.00000  Step:          67  Bead:       0 positions{angstrom}  cell{angstrom}
       O -3.16176e+00  1.06882e+00  3.48482e-01
       H -2.48721e+00  4.53974e-01  3.16334e-01
       H -2.65295e+00  1.88517e+00  3.65980e-01
       H -4.05790e+00  7.65542e-01  4.71747e-01
4
# CELL(abcABC): 1000.00000  1000.00000  1000.00000    90.00000    90.00000    90.00000  Step:          68  Bead:       0 positions{angstrom}  cell{angstrom}
       O -3.16062e+00  1.06874e+00  3.48600e-01
       H -2.49443e+00  4.57933e-01  3.11751e-01
       H -2.64591e+00  1.88194e+00  3.63265e-01
       H -4.07593e+00  7.66069e-01  4.77173e-01
4
# CELL(abcABC): 1000.00000  1000.00000  1000.00000    90.00000    90.00000    90.00000  Step:          69  Bead:       0 positions{angstrom}  cell{angstrom}
       O -3.15953e+00  1.06910e+00  3.48627e-01
       H -2.49762e+00  4.55475e-01  3.08119e-01
       H -2.64186e+00  1.87825e+00  3.61242e-01
       H -4.09407e+00  7.66518e-01  4.82410e-01
4
# CELL(abcABC): 1000.00000  1000.00000  1000.00000    90.00000    90.00000    90.00000  Step:          70  Bead:       0 positions{angstrom}  cell{angstrom}
       O -3.15875e+00  1.06963e+00  3.48749e-01
       H -2.49589e+00  4.48480e-01  3.02833e-01
       H -2.63969e+00  1.87512e+00  3.58722e-01
       H -4.11038e+00  7.68156e-01  4.88270e-01
4
# CELL(abcABC): 1000.00000  1000.00000  1000.00000    90.00000    90.00000    90.00000  Step:          71  Bead:       0 positions{angstrom}  cell{angstrom}
       O -3.15804e+00  1.07047e+00  3.49031e-01
       H -2.49114e+00  4.36004e-01  2.95445e-01
       H -2.63976e+00  1.87161e+00  3.55550e-01
       H -4.12619e+00  7.70733e-01  4.94352e-01
4
# CELL(abcABC): 1000.00000  1000.00000  1000.00000    90.00000    90.00000    90.00000  Step:          72  Bead:       0 positions{angstrom}  cell{angstrom}
       O -3.15745e+00  1.07131e+00  3.49347e-01
       H -2.48391e+00  4.20972e-01  2.87720e-01
       H -2.64102e+00  1.86892e+00  3.52942e-01
       H -4.14163e+00  7.75172e-01  4.99676e-01
4
# CELL(abcABC): 1000.00000  1000.00000  1000.00000    90.00000    90.00000    90.00000  Step:          73  Bead:       0 positions{angstrom}  cell{angstrom}
       O -3.15680e+00  1.07211e+00  3.49802e-01
       H -2.47645e+00  4.04866e-01  2.79399e-01
       H -2.64325e+00  1.86771e+00  3.50216e-01
       H -4.15713e+00  7.79742e-01  5.03496e-01
4
# CELL(abcABC): 1000.00000  1000.00000  1000.00000    90.00000    90.00000    90.00000  Step:          74  Bead:       0 positions{angstrom}  cell{angstrom}
       O -3.15610e+00  1.07265e+00  3.50471e-01
       H -2.46996e+00  3.89785e-01  2.69542e-01
       H -2.64605e+00  1.86801e+00  3.46216e-01
       H -4.17185e+00  7.86099e-01  5.06731e-01
4
# CELL(abcABC): 1000.00000  1000.00000  1000.00000    90.00000    90.00000    90.00000  Step:          75  Bead:       0 positions{angstrom}  cell{angstrom}
       O -3.15511e+00  1.07289e+00  3.51181e-01
       H -2.46652e+00  3.76227e-01  2.59129e-01
       H -2.64973e+00  1.86934e+00  3.42897e-01
       H -4.18734e+00  7.94489e-01  5.09199e-01
4
# CELL(abcABC): 1000.00000  1000.00000  1000.00000    90.00000    90.00000    90.00000  Step:          76  Bead:       0 positions{angstrom}  cell{angstrom}
       O -3.15404e+00  1.07260e+00  3.51788e-01
       H -2.46563e+00  3.66599e-01  2.50033e-01
       H -2.65356e+00  1.87240e+00  3.39629e-01
       H -4.20150e+00  8.05656e-01  5.11935e-01
4
# CELL(abcABC): 1000.00000  1000.00000  1000.00000    90.00000    90.00000    90.00000  Step:          77  Bead:       0 positions{angstrom}  cell{angstrom}
       O -3.15270e+00  1.07184e+00  3.52360e-01
       H -2.46855e+00  3.62253e-01  2.41380e-01
       H -2.65774e+00  1.87724e+00  3.36963e-01
       H -4.21565e+00  8.17193e-01  5.14161e-01
4
# CELL(abcABC): 1000.00000  1000.00000  1000.00000    90.00000    90.00000    90.00000  Step:          78  Bead:       0 positions{angstrom}  cell{angstrom}
       O -3.15114e+00  1.07068e+00  3.53089e-01
       H -2.47623e+00  3.61735e-01  2.32339e-01
       H -2.66091e+00  1.88376e+00  3.34061e-01
       H -4.22951e+00  8.29589e-01  5.14536e-01
4
# CELL(abcABC): 1000.00000  1000.00000  1000.00000    90.00000    90.00000    90.00000  Step:          79  Bead:       0 positions{angstrom}  cell{angstrom}
       O -3.14952e+00  1.06929e+00  3.53773e-01
       H -2.48756e+00  3.65868e-01  2.25146e-01
       H -2.66263e+00  1.88970e+00  3.30996e-01
       H -4.24214e+00  8.41558e-01  5.13939e-01
4
# CELL(abcABC): 1000.00000  1000.00000  1000.00000    90.00000    90.00000    90.00000  Step:          80  Bead:       0 positions{angstrom}  cell{angstrom}
       O -3.14795e+00  1.06771e+00  3.54337e-01
       H -2.50040e+00  3.73464e-01  2.18462e-01
       H -2.66383e+00  1.89487e+00  3.29055e-01
       H -4.25307e+00  8.53824e-01  5.13604e-01
4
# CELL(abcABC): 1000.00000  1000.00000  1000.00000    90.00000    90.00000    90.00000  Step:          81  Bead:       0 positions{angstrom}  cell{angstrom}
       O -3.14648e+00  1.06594e+00  3.54960e-01
       H -2.51163e+00  3.83712e-01  2.11459e-01
       H -2.66557e+00  1.90071e+00  3.27419e-01
       H -4.26338e+00  8.65914e-01  5.12358e-01
4
# CELL(abcABC): 1000.00000  1000.00000  1000.00000    90.00000    90.00000    90.00000  Step:          82  Bead:       0 positions{angstrom}  cell{angstrom}
       O -3.14516e+00  1.06440e+00  3.55496e-01
       H -2.52100e+00  3.93496e-01  2.05233e-01
       H -2.66709e+00  1.90343e+00  3.25883e-01
       H -4.27357e+00  8.77842e-01  5.11621e-01
4
# CELL(abcABC): 1000.00000  1000.00000  1000.00000    90.00000    90.00000    90.00000  Step:          83  Bead:       0 positions{angstrom}  cell{angstrom}
       O -3.14410e+00  1.06303e+00  3.56056e-01
       H -2.52759e+00  4.02159e-01  1.99118e-01
       H -2.66881e+00  1.90428e+00  3.24545e-01
       H -4.28195e+00  8.90082e-01  5.10181e-01
4
# CELL(abcABC): 1000.00000  1000.00000  1000.00000    90.00000    90.00000    90.00000  Step:          84  Bead:       0 positions{angstrom}  cell{angstrom}
       O -3.14336e+00  1.06200e+00  3.56688e-01
       H -2.52909e+00  4.07106e-01  1.91345e-01
       H -2.67175e+00  1.90294e+00  3.23297e-01
       H -4.28938e+00  9.02826e-01  5.09162e-01
4
# CELL(abcABC): 1000.00000  1000.00000  1000.00000    90.00000    90.00000    90.00000  Step:          85  Bead:       0 positions{angstrom}  cell{angstrom}