4
# CELL(abcABC): 1000.00000  1000.00000  1000.00000    90.00000    90.00000    90.00000  Step:           0  Bead:       0 positions{angstrom}  cell{angstrom}
       O -3.14630e+00  1.06795e+00  3.47154e-01
       H -2.51571e+00  5.53876e-01  7.67948e-01
       H -3.31048e+00  1.85247e+00  8.20619e-01
       H -3.61734e+00  7.12183e-01 -4.13436e-01
4
# CELL(abcABC): 1000.00000  1000.00000  1000.00000    90.00000    90.00000    90.00000  Step:           1  Bead:       0 positions{angstrom}  cell{angstrom}
       O -3.14473e+00  1.06820e+00  3.46485e-01
       H -2.52359e+00  5.45587e-01  7.73464e-01
       H -3.31044e+00  1.85319e+00  8.22323e-01
       H -3.63446e+00  7.15774e-01 -4.10033e-01
4
# CELL(abcABC): 1000.00000  1000.00000  1000.00000    90.00000    90.00000    90.00000  Step:           2  Bead:       0 positions{angstrom}  cell{angstrom}
       O -3.14346e+00  1.06837e+00  3.45564e-01
       H -2.52821e+00  5.35404e-01  7.81952e-01
       H -3.30896e+00  1.85640e+00  8.25030e-01
       H -3.65139e+00  7.20049e-01 -4.06615e-01
4
# CELL(abcABC): 1000.00000  1000.00000  1000.00000    90.00000    90.00000    90.00000  Step:           3  Bead:       0 positions{angstrom}  cell{angstrom}
       O -3.14235e+00  1.06852e+00  3.44373e-01
       H -2.52969e+00  5.22506e-01  7.94194e-01
       H -3.30777e+00  1.86269e+00  8.29104e-01
       H -3.66885e+00  7.24307e-01 -4.04024e-01
4
# CELL(abcABC): 1000.00000  1000.00000  1000.00000    90.00000    90.00000    90.00000  Step:           4  Bead:       0 positions{angstrom}  cell{angstrom}
       O -3.14137e+00  1.06866e+00  3.43161e-01
       H -2.53012e+00  5.07928e-01  8.06393e-01
       H -3.30574e+00  1.87072e+00  8.32951e-01
       H -3.68585e+00  7.28624e-01 -4.00825e-01
4
# CELL(abcABC): 1000.00000  1000.00000  1000.00000    90.00000    90.00000    90.00000  Step:           5  Bead:       0 positions{angstrom}  cell{angstrom}
       O -3.14037e+00  1.06863e+00  3.41990e-01
       H -2.53143e+00  4.94030e-01  8.18349e-01
       H -3.30393e+00  1.88002e+00  8.37461e-01
       H -3.70234e+00  7.33762e-01 -3.98708e-01
4
# CELL(abcABC): 1000.00000  1000.00000  1000.00000    90.00000    90.00000    90.00000  Step:           6  Bead:       0 positions{angstrom}  cell{angstrom}
       O -3.13927e+00  1.06862e+00  3.40952e-01
       H -2.53387e+00  4.82033e-01  8.28494e-01
       H -3.30207e+00  1.88668e+00  8.39997e-01
       H -3.71922e+00  7.39183e-01 -3.94917e-01
4
# CELL(abcABC): 1000.00000  1000.00000  1000.00000    90.00000    90.00000    90.00000  Step:           7  Bead:       0 positions{angstrom}  cell{angstrom}
       O -3.13820e+00  1.06847e+00  3.39883e-01
       H -2.53682e+00  4.72416e-01  8.38379e-01
       H -3.29955e+00  1.89113e+00  8.41957e-01
       H -3.73567e+00  7.46732e-01 -3.89783e-01
4
# CELL(abcABC): 1000.00000  1000.00000  1000.00000    90.00000    90.00000    90.00000  Step:           8  Bead:       0 positions{angstrom}  cell{angstrom}
       O -3.13720e+00  1.06828e+00  3.39073e-01
       H -2.54123e+00  4.65735e-01  8.45502e-01
       H -3.29505e+00  1.89219e+00  8.41648e-01
       H -3.75168e+00  7.55301e-01 -3.83742e-01
4
# CELL(abcABC): 1000.00000  1000.00000  1000.00000    90.00000    90.00000    90.00000  Step:           9  Bead:       0 positions{angstrom}  cell{angstrom}
       O -3.13621e+00  1.06813e+00  3.38355e-01
       H -2.54821e+00  4.61374e-01  8.51321e-01
       H -3.28847e+00  1.89075e+00  8.40298e-01
       H -3.76695e+00  7.63568e-01 -3.76815e-01
4
# CELL(abcABC): 1000.00000  1000.00000  1000.00000    90.00000    90.00000    90.00000  Step:          10  Bead:       0 positions{angstrom}  cell{angstrom}
       O -3.13521e+00  1.06784e+00  3.37974e-01
       H -2.55753e+00  4.60141e-01  8.53797e-01
       H -3.28071e+00  1.88749e+00  8.36719e-01
       H -3.78130e+00  7.72701e-01 -3.69672e-01
4
# CELL(abcABC): 1000.00000  1000.00000  1000.00000    90.00000    90.00000    90.00000  Step:          11  Bead:       0 positions{angstrom}  cell{angstrom}
       O -3.13421e+00  1.06748e+00  3.37921e-01
       H -2.56862e+00  4.62454e-01  8.52529e-01
       H -3.27330e+00  1.88191e+00  8.31531e-01
       H -3.79345e+00  7.81662e-01 -3.62369e-01
4
# CELL(abcABC): 1000.00000  1000.00000  1000.00000    90.00000    90.00000    90.00000  Step:          12  Bead:       0 positions{angstrom}  cell{angstrom}
       O -3.13341e+00  1.06710e+00  3.38068e-01
       H -2.57964e+00  4.66746e-01  8.48982e-01
       H -3.26520e+00  1.87384e+00  8.24630e-01
       H -3.80327e+00  7.91397e-01 -3.54255e-01
4
# CELL(abcABC): 1000.00000  1000.00000  1000.00000    90.00000    90.00000    90.00000  Step:          13  Bead:       0 positions{angstrom}  cell{angstrom}
       O -3.13280e+00  1.06666e+00  3.38234e-01
       H -2.59086e+00  4.72871e-01  8.44451e-01
       H -3.25528e+00  1.86560e+00  8.17752e-01
       H -3.81176e+00  8.00589e-01 -3.45483e-01
4
# CELL(abcABC): 1000.00000  1000.00000  1000.00000    90.00000    90.00000    90.00000  Step:          14  Bead:       0 positions{angstrom}  cell{angstrom}
       O -3.13242e+00  1.06610e+00  3.38295e-01
       H -2.59993e+00  4.78806e-01  8.40060e-01
       H -3.24455e+00  1.85933e+00  8.11654e-01
       H -3.81933e+00  8.09786e-01 -3.35967e-01
4
# CELL(abcABC): 1000.00000  1000.00000  1000.00000    90.00000    90.00000    90.00000  Step:          15  Bead:       0 positions{angstrom}  cell{angstrom}
       O -3.13221e+00  1.06533e+00  3.37975e-01
       H -2.60921e+00  4.83189e-01  8.38471e-01
       H -3.23435e+00  1.85621e+00  8.07230e-01
       H -3.82355e+00  8.20647e-01 -3.24872e-01
4
# CELL(abcABC): 1000.00000  1000.00000  1000.00000    90.00000    90.00000    90.00000  Step:          16  Bead:       0 positions{angstrom}  cell{angstrom}
       O -3.13231e+00  1.06442e+00  3.37426e-01
       H -2.61496e+00  4.85162e-01  8.37961e-01
       H -3.22440e+00  1.85760e+00  8.04707e-01
       H -3.82628e+00  8.31782e-01 -3.13120e-01
4
# CELL(abcABC): 1000.00000  1000.00000  1000.00000    90.00000    90.00000    90.00000  Step:          17  Bead:       0 positions{angstrom}  cell{angstrom}
       O -3.13257e+00  1.06347e+00  3.36635e-01
       H -2.61716e+00  4.84962e-01  8.39497e-01
       H -3.21560e+00  1.86318e+00  8.02986e-01
       H -3.82876e+00  8.41582e-01 -3.00385e-01
4
# CELL(abcABC): 1000.00000  1000.00000  1000.00000    90.00000    90.00000    90.00000  Step:          18  Bead:       0 positions{angstrom}  cell{angstrom}
       O -3.13302e+00  1.06244e+00  3.35652e-01
       H -2.61760e+00  4.82874e-01  8.43026e-01
       H -3.20579e+00  1.87167e+00  8.02503e-01
       H -3.83091e+00  8.51520e-01 -2.87820e-01
4
# CELL(abcABC): 1000.00000  1000.00000  1000.00000    90.00000    90.00000    90.00000  Step:          19  Bead:       0 positions{angstrom}  cell{angstrom}
       O -3.13375e+00  1.06153e+00  3.34547e-01
       H -2.61519e+00  4.78216e-01  8.48485e-01
       H -3.19676e+00  1.88146e+00  8.01978e-01
       H -3.83073e+00  8.60780e-01 -2.75222e-01
4
# CELL(abcABC): 1000.00000  1000.00000  1000.00000    90.00000    90.00000    90.00000  Step:          20  Bead:       0 positions{angstrom}  cell{angstrom}
       O -3.13460e+00  1.06079e+00  3.33519e-01
       H -2.61101e+00  4.72296e-01  8.53263e-01
       H -3.18859e+00  1.89202e+00  8.01592e-01
       H -3.82968e+00  8.67879e-01 -2.63296e-01
4
# CELL(abcABC): 1000.00000  1000.00000  1000.00000    90.00000    90.00000    90.00000  Step:          21  Bead:       0 positions{angstrom}  cell{angstrom}
       O -3.13557e+00  1.06021e+00  3.32713e-01
       H -2.60637e+00  4.65016e-01  8.56717e-01
       H -3.17863e+00  1.90259e+00  8.01358e-01
       H -3.82893e+00  8.73788e-01 -2.53718e-01
4
# CELL(abcABC): 1000.00000  1000.00000  1000.00000    90.00000    90.00000    90.00000  Step:          22  Bead:       0 positions{angstrom}  cell{angstrom}
       O -3.13658e+00  1.05974e+00  3.32274e-01
       H -2.60281e+00  4.56855e-01  8.60149e-01
       H -3.16619e+00  1.91176e+00  7.98094e-01
       H -3.82881e+00  8.80211e-01 -2.46916e-01
4
# CELL(abcABC): 1000.00000  1000.00000  1000.00000    90.00000    90.00000    90.00000  Step:          23  Bead:       0 positions{angstrom}  cell{angstrom}
       O -3.13756e+00  1.05945e+00  3.32387e-01
       H -2.59979e+00  4.50041e-01  8.61348e-01
       H -3.15237e+00  1.91901e+00  7.93391e-01
       H -3.83014e+00  8.84369e-01 -2.45210e-01
4
# CELL(abcABC): 1000.00000  1000.00000  1000.00000    90.00000    90.00000    90.00000  Step:          24  Bead:       0 positions{angstrom}  cell{angstrom}
       O -3.13845e+00  1.05924e+00  3.32921e-01
       H -2.59742e+00  4.43650e-01  8.60331e-01
       H -3.13764e+00  1.92447e+00  7.86905e-01
       H -3.83309e+00  8.88621e-01 -2.46179e-01
4
# CELL(abcABC): 1000.00000  1000.00000  1000.00000    90.00000    90.00000    90.00000  Step:          25  Bead:       0 positions{angstrom}  cell{angstrom}
       O -3.13917e+00  1.05928e+00  3.33787e-01
       H -2.59668e+00  4.38124e-01  8.57725e-01
       H -3.12271e+00  1.92621e+00  7.78551e-01
       H -3.83734e+00  8.91837e-01 -2.48959e-01
4
# CELL(abcABC): 1000.00000  1000.00000  1000.00000    90.00000    90.00000    90.00000  Step:          26  Bead:       0 positions{angstrom}  cell{angstrom}
       O -3.13973e+00  1.05952e+00  3.35021e-01
       H -2.59770e+00  4.34051e-01  8.51950e-01
       H -3.10697e+00  1.92479e+00  7.68177e-01
       H -3.84309e+00  8.93469e-01 -2.52408e-01
4
# CELL(abcABC): 1000.00000  1000.00000  1000.00000    90.00000    90.00000    90.00000  Step:          27  Bead:       0 positions{angstrom}  cell{angstrom}
       O -3.14028e+00  1.05983e+00  3.36614e-01
       H -2.60056e+00  4.33030e-01  8.43216e-01
       H -3.09072e+00  1.92030e+00  7.56082e-01
       H -3.84782e+00  8.94148e-01 -2.56869e-01
4
# CELL(abcABC): 1000.00000  1000.00000  1000.00000    90.00000    90.00000    90.00000  Step:          28  Bead:       0 positions{angstrom}  cell{angstrom}
       O -3.14069e+00  1.06016e+00  3.38387e-01
       H -2.60575e+00  4.32198e-01  8.32490e-01
       H -3.07339e+00  1.91478e+00  7.43477e-01
       H -3.85337e+00  8.95235e-01 -2.61677e-01
4
# CELL(abcABC): 1000.00000  1000.00000  1000.00000    90.00000    90.00000    90.00000  Step:          29  Bead:       0 positions{angstrom}  cell{angstrom}
       O -3.14113e+00  1.06042e+00  3.40310e-01
       H -2.61090e+00  4.32780e-01  8.19122e-01
       H -3.05646e+00  1.90934e+00  7.30792e-01
       H -3.85828e+00  8.95992e-01 -2.66143e-01
4
# CELL(abcABC): 1000.00000  1000.00000  1000.00000    90.00000    90.00000    90.00000  Step:          30  Bead:       0 positions{angstrom}  cell{angstrom}
       O -3.14163e+00  1.06049e+00  3.42217e-01
       H -2.61552e+00  4.34585e-01  8.06081e-01
       H -3.03916e+00  1.90530e+00  7.19111e-01
       H -3.86298e+00  8.97084e-01 -2.71692e-01
4
# CELL(abcABC): 1000.00000  1000.00000  1000.00000    90.00000    90.00000    90.00000  Step:          31  Bead:       0 positions{angstrom}  cell{angstrom}
       O -3.14242e+00  1.06035e+00  3.44098e-01
       H -2.61751e+00  4.35759e-01  7.93640e-01
       H -3.02054e+00  1.90491e+00  7.07889e-01
       H -3.86707e+00  8.98554e-01 -2.77882e-01
4
# CELL(abcABC): 1000.00000  1000.00000  1000.00000    90.00000    90.00000    90.00000  Step:          32  Bead:       0 positions{angstrom}  cell{angstrom}
       O -3.14340e+00  1.06021e+00  3.45640e-01
       H -2.61864e+00  4.33373e-01  7.82909e-01
       H -3.00063e+00  1.90880e+00  6.99170e-01
       H -3.87023e+00  8.99138e-01 -2.82918e-01
4
# CELL(abcABC): 1000.00000  1000.00000  1000.00000    90.00000    90.00000    90.00000  Step:          33  Bead:       0 positions{angstrom}  cell{angstrom}
       O -3.14462e+00  1.06019e+00  3.46888e-01
       H -2.61815e+00  4.28077e-01  7.74872e-01
       H -2.97964e+00  1.91434e+00  6.92090e-01
       H -3.87233e+00  8.99353e-01 -2.87613e-01
4
# CELL(abcABC): 1000.00000  1000.00000  1000.00000    90.00000    90.00000    90.00000  Step:          34  Bead:       0 positions{angstrom}  cell{angstrom}
       O -3.14595e+00  1.06022e+00  3.48062e-01
       H -2.61512e+00  4.20329e-01  7.68106e-01
       H -2.95994e+00  1.92120e+00  6.86180e-01
       H -3.87399e+00  8.99638e-01 -2.93569e-01
4
# CELL(abcABC): 1000.00000  1000.00000  1000.00000    90.00000    90.00000    90.00000  Step:          35  Bead:       0 positions{angstrom}  cell{angstrom}
       O -3.14752e+00  1.06030e+00  3.49107e-01
       H -2.60870e+00  4.10658e-01  7.61682e-01
       H -2.94118e+00  1.92976e+00  6.81397e-01
       H -3.87435e+00  8.99569e-01 -2.98952e-01
4
# CELL(abcABC): 1000.00000  1000.00000  1000.00000    90.00000    90.00000    90.00000  Step:          36  Bead:       0 positions{angstrom}  cell{angstrom}
       O -3.14925e+00  1.06038e+00  3.50103e-01
       H -2.60106e+00  4.00005e-01  7.55232e-01
       H -2.92236e+00  1.93911e+00  6.75771e-01
       H -3.87329e+00  8.99530e-01 -3.02680e-01
4
# CELL(abcABC): 1000.00000  1000.00000  1000.00000    90.00000    90.00000    90.00000  Step:          37  Bead:       0 positions{angstrom}  cell{angstrom}
       O -3.15111e+00  1.06063e+00  3.50982e-01
       H -2.59262e+00  3.90175e-01  7.50422e-01
       H -2.90346e+00  1.94608e+00  6.69191e-01
       H -3.87115e+00  8.98421e-01 -3.05250e-01
4
# CELL(abcABC): 1000.00000  1000.00000  1000.00000    90.00000    90.00000    90.00000  Step:          38  Bead:       0 positions{angstrom}  cell{angstrom}
       O -3.15279e+00  1.06099e+00  3.52074e-01
       H -2.58588e+00  3.81154e-01  7.43718e-01
       H -2.88519e+00  1.94919e+00  6.61530e-01
       H -3.86938e+00  8.98737e-01 -3.08219e-01
4
# CELL(abcABC): 1000.00000  1000.00000  1000.00000    90.00000    90.00000    90.00000  Step:          39  Bead:       0 positions{angstrom}  cell{angstrom}
       O -3.15457e+00  1.06155e+00  3.53138e-01
       H -2.57974e+00  3.73329e-01  7.36435e-01
       H -2.86738e+00  1.94786e+00  6.53835e-01
       H -3.86506e+00  8.98967e-01 -3.10122e-01
4
# CELL(abcABC): 1000.00000  1000.00000  1000.00000    90.00000    90.00000    90.00000  Step:          40  Bead:       0 positions{angstrom}  cell{angstrom}
       O -3.15628e+00  1.06211e+00  3.54104e-01
       H -2.57547e+00  3.68054e-01  7.28744e-01
       H -2.85028e+00  1.94332e+00  6.46869e-01
       H -3.85939e+00  8.99800e-01 -3.10806e-01
4
# CELL(abcABC): 1000.00000  1000.00000  1000.00000    90.00000    90.00000    90.00000  Step:          41  Bead:       0 positions{angstrom}  cell{angstrom}
       O -3.15782e+00  1.06266e+00  3.55105e-01
       H -2.57375e+00  3.66253e-01  7.19131e-01
       H -2.83359e+00  1.93602e+00  6.39434e-01
       H -3.85333e+00  9.00205e-01 -3.09650e-01
4
# CELL(abcABC): 1000.00000  1000.00000  1000.00000    90.00000    90.00000    90.00000  Step:          42  Bead:       0 positions{angstrom}  cell{angstrom}
       O -3.15929e+00  1.06332e+00  3.56235e-01
       H -2.57287e+00  3.65263e-01  7.07767e-01
       H -2.81767e+00  1.92613e+00  6.31758e-01
       H -3.84673e+00  9.00590e-01 -3.08537e-01
4
# CELL(abcABC): 1000.00000  1000.00000  1000.00000    90.00000    90.00000    90.00000  Step:          43  Bead:       0 positions{angstrom}  cell{angstrom}
       O -3.16057e+00  1.06387e+00  3.57440e-01
       H -2.57448e+00  3.67524e-01  6.94763e-01
       H -2.80255e+00  1.91569e+00  6.23950e-01
       H -3.83999e+00  9.00055e-01 -3.06850e-01
4
# CELL(abcABC): 1000.00000  1000.00000  1000.00000    90.00000    90.00000    90.00000  Step:          44  Bead:       0 positions{angstrom}  cell{angstrom}
       O -3.16165e+00  1.06439e+00  3.58682e-01
       H -2.57769e+00  3.70923e-01  6.80173e-01
       H -2.78816e+00  1.90383e+00  6.15540e-01
       H -3.83401e+00  9.00239e-01 -3.03574e-01
4
# CELL(abcABC): 1000.00000  1000.00000  1000.00000    90.00000    90.00000    90.00000  Step:          45  Bead:       0 positions{angstrom}  cell{angstrom}
       O -3.16250e+00  1.06487e+00  3.59992e-01
       H -2.58267e+00  3.75402e-01  6.64374e-01
       H -2.77366e+00  1.89131e+00  6.06455e-01
       H -3.83007e+00  9.00689e-01 -2.99476e-01
4
# CELL(abcABC): 1000.00000  1000.00000  1000.00000    90.00000    90.00000    90.00000  Step:          46  Bead:       0 positions{angstrom}  cell{angstrom}
       O -3.16331e+00  1.06531e+00  3.61303e-01
       H -2.58809e+00  3.80305e-01  6.48111e-01
       H -2.75953e+00  1.87901e+00  5.97280e-01
       H -3.82591e+00  9.01198e-01 -2.94845e-01
4
# CELL(abcABC): 1000.00000  1000.00000  1000.00000    90.00000    90.00000    90.00000  Step:          47  Bead:       0 positions{angstrom}  cell{angstrom}
       O -3.16408e+00  1.06557e+00  3.62669e-01
       H -2.59285e+00  3.83448e-01  6.32605e-01
       H -2.74518e+00  1.86904e+00  5.87834e-01
       H -3.82324e+00  9.03789e-01 -2.91589e-01
4
# CELL(abcABC): 1000.00000  1000.00000  1000.00000    90.00000    90.00000    90.00000  Step:          48  Bead:       0 positions{angstrom}  cell{angstrom}
       O -3.16488e+00  1.06589e+00  3.63929e-01
       H -2.59561e+00  3.82882e-01  6.18343e-01
       H -2.73052e+00  1.86249e+00  5.78352e-01
       H -3.82248e+00  9.05813e-01 -2.87835e-01
4
# CELL(abcABC): 1000.00000  1000.00000  1000.00000    90.00000    90.00000    90.00000  Step:          49  Bead:       0 positions{angstrom}  cell{angstrom}
       O -3.16578e+00  1.06620e+00  3.64966e-01
       H -2.59633e+00  3.78495e-01  6.05832e-01
       H -2.71434e+00  1.85872e+00  5.69680e-01
       H -3.82363e+00  9.09065e-01 -2.83113e-01
4
# CELL(abcABC): 1000.00000  1000.00000  1000.00000    90.00000    90.00000    90.00000  Step:          50  Bead:       0 positions{angstrom}  cell{angstrom}
       O -3.16654e+00  1.06659e+00  3.66004e-01
       H -2.59547e+00  3.70815e-01  5.94198e-01
       H -2.69978e+00  1.85696e+00  5.61649e-01
       H -3.82693e+00  9.12377e-01 -2.79923e-01
4
# CELL(abcABC): 1000.00000  1000.00000  1000.00000    90.00000    90.00000    90.00000  Step:          51  Bead:       0 positions{angstrom}  cell{angstrom}
       O -3.16729e+00  1.06697e+00  3.66973e-01
       H -2.59354e+00  3.59785e-01  5.83138e-01
       H -2.68581e+00  1.85777e+00  5.53881e-01
       H -3.83097e+00  9.16519e-01 -2.76482e-01
4
# CELL(abcABC): 1000.00000  1000.00000  1000.00000    90.00000    90.00000    90.00000  Step:          52  Bead:       0 positions{angstrom}  cell{angstrom}
       O -3.16791e+00  1.06744e+00  3.67995e-01
       H -2.59134e+00  3.46529e-01  5.72855e-01
       H -2.67286e+00  1.85951e+00  5.45204e-01
       H -3.83624e+00  9.20530e-01 -2.73747e-01
4
# CELL(abcABC): 1000.00000  1000.00000  1000.00000    90.00000    90.00000    90.00000  Step:          53  Bead:       0 positions{angstrom}  cell{angstrom}
       O -3.16837e+00  1.06786e+00  3.68944e-01
       H -2.58882e+00  3.32982e-01  5.62179e-01
       H -2.66143e+00  1.86342e+00  5.37257e-01
       H -3.84303e+00  9.23598e-01 -2.70183e-01
4
# CELL(abcABC): 1000.00000  1000.00000  1000.00000    90.00000    90.00000    90.00000  Step:          54  Bead:       0 positions{angstrom}  cell{angstrom}
       O -3.16853e+00  1.06831e+00  3.69595e-01
       H -2.58745e+00  3.18944e-01  5.52933e-01
       H -2.65216e+00  1.86793e+00  5.30094e-01
       H -3.85113e+00  9.25972e-01 -2.64103e-01
4
# CELL(abcABC): 1000.00000  1000.00000  1000.00000    90.00000    90.00000    90.00000  Step:          55  Bead:       0 positions{angstrom}  cell{angstrom}
       O -3.16840e+00  1.06871e+00  3.70172e-01
       H -2.58845e+00  3.06625e-01  5.44707e-01
       H -2.64492e+00  1.87161e+00  5.23580e-01
       H -3.85940e+00  9.28265e-01 -2.58527e-01
4
# CELL(abcABC): 1000.00000  1000.00000  1000.00000    90.00000    90.00000    90.00000  Step:          56  Bead:       0 positions{angstrom}  cell{angstrom}
       O -3.16797e+00  1.06899e+00  3.70699e-01
       H -2.58949e+00  2.97030e-01  5.37307e-01
       H -2.64027e+00  1.87350e+00  5.15953e-01
       H -3.86974e+00  9.31569e-01 -2.51869e-01
4
# CELL(abcABC): 1000.00000  1000.00000  1000.00000    90.00000    90.00000    90.00000  Step:          57  Bead:       0 positions{angstrom}  cell{angstrom}
       O -3.16717e+00  1.06911e+00  3.71115e-01
       H -2.59135e+00  2.91109e-01  5.30677e-01
       H -2.63915e+00  1.87307e+00  5.09362e-01
       H -3.88168e+00  9.35918e-01 -2.45248e-01
4
# CELL(abcABC): 1000.00000  1000.00000  1000.00000    90.00000    90.00000    90.00000  Step:          58  Bead:       0 positions{angstrom}  cell{angstrom}
       O -3.16612e+00  1.06915e+00  3.71452e-01
       H -2.59443e+00  2.87809e-01  5.24206e-01
       H -2.63988e+00  1.87081e+00  5.03603e-01
       H -3.89460e+00  9.40886e-01 -2.38369e-01
4
# CELL(abcABC): 1000.00000  1000.00000  1000.00000    90.00000    90.00000    90.00000  Step:          59  Bead:       0 positions{angstrom}  cell{angstrom}
       O -3.16486e+00  1.06899e+00  3.71571e-01
       H -2.59864e+00  2.87986e-01  5.18253e-01
       H -2.64210e+00  1.86752e+00  4.99824e-01
       H -3.90821e+00  9.46553e-01 -2.30529e-01
4
# CELL(abcABC): 1000.00000  1000.00000  1000.00000    90.00000    90.00000    90.00000  Step:          60  Bead:       0 positions{angstrom}  cell{angstrom}
       O -3.16346e+00  1.06872e+00  3.71612e-01
       H -2.60548e+00  2.90796e-01  5.12930e-01
       H -2.64477e+00  1.86253e+00  4.95043e-01
       H -3.92096e+00  9.52977e-01 -2.21073e-01
4
# CELL(abcABC): 1000.00000  1000.00000  1000.00000    90.00000    90.00000    90.00000  Step:          61  Bead:       0 positions{angstrom}  cell{angstrom}
       O -3.16208e+00  1.06835e+00  3.71533e-01
       H -2.61236e+00  2.95339e-01  5.08065e-01
       H -2.64679e+00  1.85682e+00  4.89703e-01
       H -3.93396e+00  9.59988e-01 -2.09612e-01
4
# CELL(abcABC): 1000.00000  1000.00000  1000.00000    90.00000    90.00000    90.00000  Step:          62  Bead:       0 positions{angstrom}  cell{angstrom}
       O -3.16065e+00  1.06795e+00  3.71417e-01
       H -2.62017e+00  3.00351e-01  5.03630e-01
       H -2.64998e+00  1.85081e+00  4.84703e-01
       H -3.94557e+00  9.67365e-01 -1.98339e-01
4
# CELL(abcABC): 1000.00000  1000.00000  1000.00000    90.00000    90.00000    90.00000  Step:          63  Bead:       0 positions{angstrom}  cell{angstrom}
       O -3.15930e+00  1.06735e+00  3.70957e-01
       H -2.62697e+00  3.06541e-01  5.00722e-01
       H -2.65286e+00  1.84501e+00  4.80495e-01
       H -3.95730e+00  9.76535e-01 -1.83923e-01
4
# CELL(abcABC): 1000.00000  1000.00000  1000.00000    90.00000    90.00000    90.00000  Step:          64  Bead:       0 positions{angstrom}  cell{angstrom}
       O -3.15821e+00  1.06668e+00  3.70248e-01
       H -2.63098e+00  3.12026e-01  5.00026e-01
       H -2.65419e+00  1.84072e+00  4.77379e-01
       H -3.96923e+00  9.86015e-01 -1.68861e-01
4
# CELL(abcABC): 1000.00000  1000.00000  1000.00000    90.00000    90.00000    90.00000  Step:          65  Bead:       0 positions{angstrom}  cell{angstrom}
       O -3.15743e+00  1.06591e+00  3.69344e-01
       H -2.63358e+00  3.16188e-01  4.99577e-01
       H -2.65327e+00  1.83995e+00  4.75222e-01
       H -3.98008e+00  9.94776e-01 -1.51890e-01
4
# CELL(abcABC): 1000.00000  1000.00000  1000.00000    90.00000    90.00000    90.00000  Step:          66  Bead:       0 positions{angstrom}  cell{angstrom}
       O -3.15698e+00  1.06506e+00  3.68128e-01
       H -2.63363e+00  3.20282e-01  5.01202e-01
       H -2.65061e+00  1.83999e+00  4.74467e-01
       H -3.98981e+00  1.00412e+00 -1.33472e-01
4
# CELL(abcABC): 1000.00000  1000.00000  1000.00000    90.00000    90.00000    90.00000  Step:          67  Bead:       0 positions{angstrom}  cell{angstrom}
       O -3.15678e+00  1.06436e+00  3.66701e-01
       H -2.63054e+00  3.20423e-01  5.03412e-01
       H -2.64603e+00  1.84215e+00  4.75245e-01
       H -4.00061e+00  1.01293e+00 -1.13808e-01
4
# CELL(abcABC): 1000.00000  1000.00000  1000.00000    90.00000    90.00000    90.00000  Step:          68  Bead:       0 positions{angstrom}  cell{angstrom}
       O -3.15688e+00  1.06372e+00  3.65236e-01
       H -2.62421e+00  3.17376e-01  5.06579e-01
       H -2.64014e+00  1.84584e+00  4.75309e-01
       H -4.01130e+00  1.02241e+00 -9.37763e-02
4
# CELL(abcABC): 1000.00000  1000.00000  1000.00000    90.00000    90.00000    90.00000  Step:          69  Bead:       0 positions{angstrom}  cell{angstrom}
       O -3.15708e+00  1.06332e+00  3.63443e-01
       H -2.61635e+00  3.10595e-01  5.12368e-01
       H -2.63454e+00  1.85027e+00  4.76949e-01
       H -4.02151e+00  1.03119e+00 -7.27534e-02
4
# CELL(abcABC): 1000.00000  1000.00000  1000.00000    90.00000    90.00000    90.00000  Step:          70  Bead:       0 positions{angstrom}  cell{angstrom}
       O -3.15750e+00  1.06287e+00  3.61552e-01
       H -2.60727e+00  3.03409e-01  5.17866e-01
       H -2.62895e+00  1.85531e+00  4.78775e-01
       H -4.02954e+00  1.04042e+00 -5.00503e-02
4
# CELL(abcABC): 1000.00000  1000.00000  1000.00000    90.00000    90.00000    90.00000  Step:          71  Bead:       0 positions{angstrom}  cell{angstrom}
       O -3.15781e+00  1.06257e+00  3.59674e-01
       H -2.59915e+00  2.95347e-01  5.22228e-01
       H -2.62463e+00  1.85885e+00  4.80408e-01
       H -4.03710e+00  1.04971e+00 -2.62382e-02
4
# CELL(abcABC): 1000.00000  1000.00000  1000.00000    90.00000    90.00000    90.00000  Step:          72  Bead:       0 positions{angstrom}  cell{angstrom}
       O -3.15799e+00  1.06220e+00  3.57736e-01
       H -2.59194e+00  2.88898e-01  5.26761e-01
       H -2.62141e+00  1.86100e+00  4.82873e-01
       H -4.04462e+00  1.05985e+00 -2.47364e-03
4
# CELL(abcABC): 1000.00000  1000.00000  1000.00000    90.00000    90.00000    90.00000  Step:          73  Bead:       0 positions{angstrom}  cell{angstrom}
       O -3.15789e+00  1.06187e+00  3.55894e-01
       H -2.58691e+00  2.84483e-01  5.30735e-01
       H -2.61982e+00  1.86157e+00  4.85320e-01
       H -4.05279e+00  1.06897e+00  2.03476e-02
4
# CELL(abcABC): 1000.00000  1000.00000  1000.00000    90.00000    90.00000    90.00000  Step:          74  Bead:       0 positions{angstrom}  cell{angstrom}
       O -3.15754e+00  1.06146e+00  3.54264e-01
       H -2.58413e+00  2.82851e-01  5.32779e-01
       H -2.62006e+00  1.86005e+00  4.86464e-01
       H -4.06097e+00  1.07862e+00  4.30299e-02
4
# CELL(abcABC): 1000.00000  1000.00000  1000.00000    90.00000    90.00000    90.00000  Step:          75  Bead:       0 positions{angstrom}  cell{angstrom}
       O -3.15672e+00  1.06106e+00  3.52706e-01
       H -2.58461e+00  2.83074e-01  5.33517e-01
       H -2.62269e+00  1.85593e+00  4.88185e-01
       H -4.07078e+00  1.08895e+00  6.52940e-02
4
# CELL(abcABC): 1000.00000  1000.00000  1000.00000    90.00000    90.00000    90.00000  Step:          76  Bead:       0 positions{angstrom}  cell{angstrom}
       O -3.15572e+00  1.06048e+00  3.51097e-01
       H -2.58696e+00  2.86212e-01  5.34568e-01
       H -2.62698e+00  1.85029e+00  4.89847e-01
       H -4.08009e+00  1.10063e+00  8.81213e-02
4
# CELL(abcABC): 1000.00000  1000.00000  1000.00000    90.00000    90.00000    90.00000  Step:          77  Bead:       0 positions{angstrom}  cell{angstrom}
       O -3.15441e+00  1.05981e+00  3.49515e-01
       H -2.59180e+00  2.92440e-01  5.34928e-01
       H -2.63278e+00  1.84404e+00  4.92044e-01
       H -4.09016e+00  1.11121e+00  1.10685e-01
4
# CELL(abcABC): 1000.00000  1000.00000  1000.00000    90.00000    90.00000    90.00000  Step:          78  Bead:       0 positions{angstrom}  cell{angstrom}
       O -3.15293e+00  1.05912e+00  3.48143e-01
       H -2.59960e+00  2.99290e-01  5.33812e-01
       H -2.63817e+00  1.83833e+00  4.94017e-01
       H -4.10056e+00  1.12115e+00  1.31608e-01
4
# CELL(abcABC): 1000.00000  1000.00000  1000.00000    90.00000    90.00000    90.00000  Step:          79  Bead:       0 positions{angstrom}  cell{angstrom}
       O -3.15149e+00  1.05851e+00  3.46764e-01
       H -2.60900e+00  3.06780e-01  5.33672e-01
       H -2.64195e+00  1.83244e+00  4.95922e-01
       H -4.11012e+00  1.12918e+00  1.51731e-01
4
# CELL(abcABC): 1000.00000  1000.00000  1000.00000    90.00000    90.00000    90.00000  Step:          80  Bead:       0 positions{angstrom}  cell{angstrom}
       O -3.15027e+00  1.05797e+00  3.45279e-01
       H -2.61799e+00  3.13288e-01  5.33558e-01
       H -2.64430e+00  1.82768e+00  4.99110e-01
       H -4.11822e+00  1.13605e+00  1.72232e-01
4
# CELL(abcABC): 1000.00000  1000.00000  1000.00000    90.00000    90.00000    90.00000  Step:          81  Bead:       0 positions{angstrom}  cell{angstrom}
       O -3.14933e+00  1.05739e+00  3.43836e-01
       H -2.62390e+00  3.18078e-01  5.33149e-01
       H -2.64569e+00  1.82675e+00  5.02795e-01
       H -4.12577e+00  1.14137e+00  1.91859e-01
4
# CELL(abcABC): 1000.00000  1000.00000  1000.00000    90.00000    90.00000    90.00000  Step:          82  Bead:       0 positions{angstrom}  cell{angstrom}
       O -3.14869e+00  1.05711e+00  3.42268e-01
       H -2.62740e+00  3.18712e-01  5.34058e-01
       H -2.64505e+00  1.82664e+00  5.06695e-01
       H -4.13317e+00  1.14522e+00  2.11941e-01
4
# CELL(abcABC): 1000.00000  1000.00000  1000.00000    90.00000    90.00000    90.00000  Step:          83  Bead:       0 positions{angstrom}  cell{angstrom}
       O -3.14839e+00  1.05697e+00  3.40676e-01
       H -2.62888e+00  3.15894e-01  5.36009e-01
       H -2.64281e+00  1.82879e+00  5.10792e-01
       H -4.13863e+00  1.14818e+00  2.31160e-01
4
# CELL(abcABC): 1000.00000  1000.00000  1000.00000    90.00000    90.00000    90.00000  Step:          84  Bead:       0 positions{angstrom}  cell{angstrom}
       O -3.14837e+00  1.05703e+00  3.39114e-01
       H -2.62750e+00  3.08767e-01  5.37454e-01
       H -2.64028e+00  1.83250e+00  5.14783e-01
       H -4.14296e+00  1.15054e+00  2.50517e-01
4
# CELL(abcABC): 1000.00000  1000.00000  1000.00000    90.00000    90.00000    90.00000  Step:          85  Bead:       0 positions{angstrom}  cell{angstrom}