11115
# CELL(abcABC):   47.66706    47.66706    47.66706    90.00000    90.00000    90.00000  Step:       10000  Bead:       0 positions{angstrom}  cell{angstrom}
       C  4.32676e-01 -1.25489e+00  5.48381e+00
       H  4.59724e-01 -2.91185e-01  4.91956e+00
       H  1.22185e+00 -1.45871e+00  6.16753e+00
       H -5.32519e-01 -1.29204e+00  6.14896e+00
       C  4.14883e-01 -2.36044e+00  4.50072e+00
       O -6.21023e-01 -2.81986e+00  4.02223e+00
       N  1.62790e+00 -2.83449e+00  4.25339e+00
       H  2.41877e+00 -2.36898e+00  4.68998e+00
       C  1.86977e+00 -4.02101e+00  3.41328e+00
       H  9.48212e-01 -4.17263e+00  2.92743e+00
       C  2.89767e+00 -3.66367e+00  2.39714e+00
       H  3.89868e+00 -3.54427e+00  2.81705e+00
       H  2.64312e+00 -2.69042e+00  2.02790e+00
       C  2.95539e+00 -4.58838e+00  1.23242e+00
       O  3.98612e+00 -5.00990e+00  6.92908e-01
       O  1.81030e+00 -4.93706e+00  7.98672e-01
       H  1.80572e+00 -5.69026e+00  1.71208e-01
       C  2.31405e+00 -5.40654e+00  4.07307e+00
       O  3.33482e+00 -6.01226e+00  3.88464e+00
       N  1.47813e+00 -5.78033e+00  5.06237e+00
       H  1.56692e+00 -6.64882e+00  5.53811e+00
       H  5.75999e-01 -5.44079e+00  5.03893e+00
       O -1.84399e+01 -1.14976e+01 -3.53001e+00
       H -1.77526e+01 -1.08505e+01 -3.33281e+00
       H -1.91843e+01 -1.10963e+01 -3.09708e+00
       O -1.74388e+01 -1.78009e+01 -2.52869e+01
       H -1.76501e+01 -1.87621e+01 -2.52730e+01
       H -1.67824e+01 -1.77907e+01 -2.45250e+01
       O -2.35600e+01 -9.59039e+00 -8.83335e+00
       H -2.38742e+01 -1.04553e+01 -8.66123e+00
       H -2.27661e+01 -9.75520e+00 -9.44279e+00
       O -1.36114e+01 -2.22924e+01 -1.30144e+01
       H -1.42139e+01 -2.17552e+01 -1.24669e+01
       H -1.38554e+01 -2.31103e+01 -1.25821e+01
       O -1.75868e+01 -1.51952e+01 -1.15960e+01
       H -1.72242e+01 -1.60688e+01 -1.17699e+01
       H -1.74767e+01 -1.47765e+01 -1.24600e+01
       O -2.78925e+01 -1.67416e+01 -1.64620e+01
       H -2.69933e+01 -1.66952e+01 -1.68535e+01
       H -2.80316e+01 -1.58001e+01 -1.61621e+01
       O -2.19899e+01 -1.95532e+01 -1.62543e+01
       H -2.11530e+01 -1.97518e+01 -1.59322e+01
       H -2.23997e+01 -2.03702e+01 -1.60535e+01
       O -1.49413e+01 -1.57965e+01 -8.75059e+00
       H -1.49363e+01 -1.50842e+01 -9.37085e+00
       H -1.58902e+01 -1.59447e+01 -8.57062e+00
       O -2.00125e+01 -2.02969e+01 -1.86397e+01
       H -1.92674e+01 -2.07732e+01 -1.90580e+01
       H -1.99743e+01 -1.93548e+01 -1.90289e+01
       O -1.00750e+01 -2.23866e+01 -9.18427e+00
       H -9.55150e+00 -2.29528e+01 -8.57241e+00
       H -1.05115e+01 -2.18026e+01 -8.53511e+00
       O -1.94635e+01 -2.04537e+01 -2.18160e+01
       H -1.96992e+01 -2.13068e+01 -2.14522e+01
       H -1.85076e+01 -2.04788e+01 -2.19846e+01
       O -7.64381e+00 -6.52649e+00 -1.25295e+01
       H -6.93061e+00 -6.74681e+00 -1.31321e+01
       H -8.12588e+00 -5.89316e+00 -1.30338e+01
       O -1.01574e+01 -1.73794e+01 -2.24670e+01
       H -1.11069e+01 -1.75035e+01 -2.25494e+01
       H -1.00902e+01 -1.74460e+01 -2.15141e+01
       O -1.68685e+01 -3.18181e+00 -9.87648e+00
       H -1.75214e+01 -2.46445e+00 -1.01729e+01
       H -1.60357e+01 -2.68298e+00 -9.93311e+00
       O -1.48102e+01 -3.28768e+01 -2.23364e+01
       H -1.48661e+01 -3.33896e+01 -2.31775e+01
       H -1.38001e+01 -3.27588e+01 -2.22043e+01
       O -4.91788e+00 -2.64778e+01 -1.61852e+01
       H -5.61146e+00 -2.72360e+01 -1.60925e+01
       H -4.04439e+00 -2.69567e+01 -1.60780e+01
       O -2.56583e+01 -1.90552e+01 -1.23547e+01
       H -2.60678e+01 -1.82198e+01 -1.26387e+01
       H -2.61566e+01 -1.92476e+01 -1.15098e+01
       O -8.27974e+00 -1.68205e+01 -2.02173e+01
       H -7.47205e+00 -1.72734e+01 -2.04840e+01
       H -8.23880e+00 -1.59550e+01 -2.05980e+01
       O -2.12135e+01 -1.64568e+01  3.01793e+00
       H -2.12053e+01 -1.60139e+01  3.84256e+00
       H -2.17211e+01 -1.57872e+01  2.55525e+00
       O -1.38549e+01 -1.63585e+01 -1.99998e+01
       H -1.34187e+01 -1.71877e+01 -1.96549e+01
       H -1.46297e+01 -1.63569e+01 -1.94334e+01
       O -1.93038e+01 -2.58868e+01 -5.59819e+00
       H -1.95146e+01 -2.66642e+01 -6.23362e+00
       H -1.83443e+01 -2.57310e+01 -5.72739e+00
       O -3.18075e+01 -1.10166e+01 -1.98178e+01
       H -3.15710e+01 -1.01896e+01 -1.93602e+01
       H -3.08694e+01 -1.11612e+01 -2.02850e+01
       O -6.00718e+00 -2.35574e+00 -2.50474e+01
       H -5.15853e+00 -1.99595e+00 -2.46464e+01
       H -5.55998e+00 -2.87149e+00 -2.57579e+01
       O -3.19523e+01 -1.25759e+01 -8.25917e+00
       H -3.21002e+01 -1.20874e+01 -9.10435e+00
       H -3.27329e+01 -1.23934e+01 -7.79478e+00
       O -1.85027e+01 -2.59935e+01 -1.98098e+01
       H -1.76246e+01 -2.57445e+01 -1.94509e+01
       H -1.86259e+01 -2.55022e+01 -2.06246e+01
       O -1.82461e+01 -1.58247e+01 -9.01136e+00
       H -1.79094e+01 -1.56487e+01 -9.95600e+00
       H -1.87772e+01 -1.66064e+01 -9.03659e+00
       O -7.93769e+00  5.11999e+00 -5.37719e+00
       H -8.83349e+00  4.83047e+00 -4.98858e+00
       H -8.26328e+00  5.85769e+00 -5.98083e+00
       O -6.41986e+00  3.16118e+00 -6.28038e+00
       H -6.93763e+00  3.86159e+00 -5.80807e+00
       H -7.00694e+00  2.91828e+00 -6.97027e+00
       O -1.84827e+01 -8.18192e+00 -8.10318e+00
       H -1.82082e+01 -7.23701e+00 -8.20443e+00
       H -1.85485e+01 -8.18883e+00 -7.11621e+00
       O -9.23948e+00 -1.88932e+01 -1.80546e+01
       H -8.81188e+00 -1.92184e+01 -1.72186e+01
       H -8.55420e+00 -1.86612e+01 -1.86480e+01
       O -2.00025e+00 -3.17417e+00 -2.91300e+01
       H -2.36467e+00 -2.78194e+00 -2.83418e+01
       H -2.58026e+00 -3.94794e+00 -2.93354e+01
       O -6.29475e+00 -3.74465e+01 -1.20392e+01
       H -5.30973e+00 -3.74214e+01 -1.19794e+01
       H -6.61283e+00 -3.76305e+01 -1.11641e+01
       O  2.21052e+00 -2.39195e+00 -1.43263e+01
       H  1.94872e+00 -1.55316e+00 -1.39919e+01
       H  2.23761e+00 -2.80785e+00 -1.34346e+01
       O -2.30804e+01 -1.73688e+01 -1.45183e+01
       H -2.30808e+01 -1.81324e+01 -1.52051e+01
       H -2.32907e+01 -1.66834e+01 -1.52188e+01
       O -8.88283e+00 -1.14985e+01 -1.63053e+01
       H -8.73940e+00 -1.24640e+01 -1.61815e+01
       H -8.47038e+00 -1.10624e+01 -1.55354e+01
       O -1.36023e+01 -2.14019e+01 -2.33461e+01
       H -1.33928e+01 -2.14550e+01 -2.43489e+01
       H -1.27062e+01 -2.10148e+01 -2.32160e+01
       O -2.30857e+01 -1.12723e+01 -4.69241e+00
       H -2.35133e+01 -1.06036e+01 -5.27081e+00
       H -2.37659e+01 -1.12679e+01 -3.98556e+00
       O -1.28912e+01 -3.46136e+01 -1.14184e+01
       H -1.34346e+01 -3.42471e+01 -1.21409e+01
       H -1.33015e+01 -3.42438e+01 -1.05978e+01
       O -1.36629e+00 -6.70504e+00  4.21597e+00
       H -1.78176e+00 -5.99472e+00  3.72434e+00
       H -1.75998e+00 -6.58553e+00  5.11001e+00
       O -3.09427e+00 -1.45507e+01 -2.48604e+01
       H -3.11553e+00 -1.42919e+01 -2.58201e+01
       H -3.61190e+00 -1.53870e+01 -2.48296e+01
       O -1.38653e+01 -2.87548e+01 -1.87753e+01
       H -1.46321e+01 -2.89091e+01 -1.92861e+01
       H -1.31910e+01 -2.90352e+01 -1.94615e+01
       O -2.50308e+01 -1.13999e+01 -1.19207e+01
       H -2.58798e+01 -1.13451e+01 -1.14609e+01
       H -2.49249e+01 -1.23413e+01 -1.17071e+01
       O -8.49878e+00 -1.59642e+01 -1.07697e+01
       H -8.07152e+00 -1.52071e+01 -1.02447e+01
       H -8.14383e+00 -1.66968e+01 -1.02666e+01
       O -2.29773e+01 -5.21259e+01 -1.92013e+01
       H -2.31523e+01 -5.27891e+01 -1.84962e+01
       H -2.19928e+01 -5.21306e+01 -1.92309e+01
       O -1.77560e+01 -1.37060e+01 -4.15868e+01
       H -1.69654e+01 -1.35852e+01 -4.21194e+01
       H -1.78885e+01 -1.46950e+01 -4.16108e+01
       O -1.04121e+01 -2.20630e+01 -2.85701e+01
       H -1.12327e+01 -2.16533e+01 -2.87927e+01
       H -1.03798e+01 -2.27845e+01 -2.92281e+01
       O -2.19204e+01 -1.32192e+01 -9.50455e+00
       H -2.12170e+01 -1.26582e+01 -9.16913e+00
       H -2.25767e+01 -1.31438e+01 -8.86347e+00
       O -1.40551e+01 -6.98779e+00 -1.21205e+01
       H -1.38210e+01 -6.05593e+00 -1.18513e+01
       H -1.46583e+01 -7.16242e+00 -1.14073e+01
       O -9.54868e+00 -2.00778e+01 -1.35754e+01
       H -9.59453e+00 -2.10307e+01 -1.35901e+01
       H -1.02548e+01 -1.98726e+01 -1.29172e+01
       O -5.11325e+00 -9.59513e+00 -1.97754e+00
       H -4.88056e+00 -1.05869e+01 -1.86365e+00
       H -5.61251e+00 -9.66922e+00 -2.84920e+00
       O -1.06751e+01  5.25301e+00 -3.59213e-01
       H -1.01883e+01  4.49670e+00 -4.80271e-01
       H -1.00421e+01  5.98351e+00 -5.83712e-01
       O -3.77033e+00 -4.13916e+00 -1.18454e+01
       H -4.58401e+00 -4.08502e+00 -1.24129e+01
       H -3.36008e+00 -4.96629e+00 -1.22081e+01
       O -1.00432e+01 -9.87594e+00 -5.07033e+00
       H -1.06341e+01 -9.14386e+00 -4.65428e+00
       H -9.71177e+00 -9.48209e+00 -5.90310e+00
       O -1.02777e+01 -5.35455e+00 -5.24747e+00
       H -1.07677e+01 -5.53033e+00 -6.03036e+00
       H -1.04622e+01 -6.12119e+00 -4.73678e+00
       O -8.47632e+00 -2.40029e+01 -7.35549e+00
       H -8.06908e+00 -2.41507e+01 -6.52421e+00
       H -8.00515e+00 -2.46758e+01 -7.87414e+00
       O -1.69536e+01 -2.56531e+01 -2.39086e+01
       H -1.70384e+01 -2.60636e+01 -2.47982e+01
       H -1.72459e+01 -2.47336e+01 -2.40795e+01
       O -2.08592e+01 -2.54226e+01 -8.24233e+00
       H -2.16393e+01 -2.57465e+01 -7.78266e+00
       H -2.13050e+01 -2.48295e+01 -8.92358e+00
       O -1.92131e+01 -2.40604e+01  4.29661e+00
       H -1.95593e+01 -2.48599e+01  3.82042e+00
       H -1.85315e+01 -2.45186e+01  4.89232e+00
       O -7.85418e-01  2.11517e+00 -1.39829e+01
       H -1.59846e-01  2.83786e+00 -1.36591e+01
       H -1.16506e+00  1.72098e+00 -1.31944e+01
       O -1.05290e+01 -3.01101e+01 -1.76091e+01
       H -1.13251e+01 -3.00275e+01 -1.81162e+01
       H -9.94062e+00 -3.04801e+01 -1.83262e+01
       O -1.84308e+01 -5.09911e+00 -3.29388e+01
       H -1.84381e+01 -4.84366e+00 -3.38818e+01
       H -1.74854e+01 -4.95066e+00 -3.26934e+01
       O -2.36171e+01 -2.06054e+01 -5.14738e+00
       H -2.32642e+01 -2.02004e+01 -5.89916e+00
       H -2.29181e+01 -2.12643e+01 -5.04768e+00
       O -1.58140e+01 -2.29536e+01 -2.30152e+01
       H -1.52667e+01 -2.21599e+01 -2.31475e+01
       H -1.51047e+01 -2.37052e+01 -2.31531e+01
       O -6.25552e+00 -2.34465e+01 -1.05911e+01
       H -5.46762e+00 -2.29699e+01 -1.10566e+01
       H -7.05754e+00 -2.28827e+01 -1.07126e+01
       O -7.94393e+00 -1.96075e+01 -1.57652e+01
       H -8.39436e+00 -1.98568e+01 -1.49575e+01
       H -6.99495e+00 -1.96174e+01 -1.54824e+01
       O -1.45541e+01 -3.10083e+01 -1.65655e-01
       H -1.43721e+01 -3.00614e+01 -8.32306e-02
       H -1.39542e+01 -3.11004e+01 -8.81226e-01
       O -3.48733e+01 -8.49932e+00 -2.48462e+00
       H -3.56559e+01 -7.84418e+00 -2.48882e+00
       H -3.52693e+01 -9.34487e+00 -2.74230e+00
       O -1.13632e+01 -1.99005e+01 -1.97533e+01
       H -1.06673e+01 -1.96780e+01 -1.91046e+01
       H -1.21808e+01 -1.95209e+01 -1.94605e+01
       O -1.62954e+01 -7.78253e+00 -2.67104e+01
       H -1.61448e+01 -7.47224e+00 -2.76385e+01
       H -1.55709e+01 -8.45247e+00 -2.65862e+01
       O -2.12927e+01 -1.45705e+01 -1.84085e+01
       H -2.08890e+01 -1.46926e+01 -1.75300e+01
       H -2.12002e+01 -1.36036e+01 -1.85583e+01
       O -2.41400e+01 -1.51450e+01 -2.01627e+00
       H -2.37047e+01 -1.43074e+01 -1.76697e+00
       H -2.47450e+01 -1.52771e+01 -1.31324e+00
       O  1.29352e+00 -2.09930e+01 -1.55140e+01
       H  2.26961e+00 -2.11893e+01 -1.55532e+01
       H  9.64867e-01 -2.14064e+01 -1.63308e+01
       O -2.35838e+01 -2.55388e+01 -2.37838e+01
       H -2.42063e+01 -2.56694e+01 -2.45738e+01
       H -2.40311e+01 -2.48753e+01 -2.32352e+01
       O -1.89761e+01 -1.12901e+01 -1.38532e+01
       H -1.91087e+01 -1.17830e+01 -1.30356e+01
       H -1.82174e+01 -1.18119e+01 -1.41186e+01
       O -1.98790e+01 -2.89893e+01 -1.44809e+01
       H -1.90848e+01 -2.84835e+01 -1.49008e+01
       H -2.06390e+01 -2.88072e+01 -1.51179e+01
       O -2.95821e+01 -2.90240e+01 -2.61734e+01
       H -2.96595e+01 -2.99987e+01 -2.61914e+01
       H -3.05270e+01 -2.87951e+01 -2.63764e+01
       O -1.03854e+01 -1.25755e+01  1.72670e+00
       H -9.46865e+00 -1.27508e+01  1.51828e+00
       H -1.07239e+01 -1.34246e+01  1.67042e+00
       O -2.98650e+01 -1.15446e+01 -4.31741e+00
       H -3.03601e+01 -1.23478e+01 -4.06471e+00
       H -3.00125e+01 -1.16175e+01 -5.30187e+00
       O -1.63993e+01 -1.76820e+01 -1.99420e+00
       H -1.71084e+01 -1.71000e+01 -2.26219e+00
       H -1.68661e+01 -1.81575e+01 -1.25978e+00
       O -1.68143e+01 -1.83750e+01 -3.20698e+01
       H -1.72649e+01 -1.82146e+01 -3.12071e+01
       H -1.67488e+01 -1.93191e+01 -3.19400e+01
       O -5.27430e+00 -2.75429e+01 -3.09902e+00
       H -4.74122e+00 -2.79231e+01 -3.85197e+00
       H -4.81625e+00 -2.81311e+01 -2.45030e+00
       O -1.09129e+01 -1.73146e+01 -1.62949e+01
       H -1.04191e+01 -1.79228e+01 -1.68109e+01
       H -1.10334e+01 -1.66167e+01 -1.69897e+01
       O -2.05295e+01 -9.99632e-01 -7.45503e+00
       H -2.07791e+01 -9.40120e-02 -7.18806e+00
       H -2.13486e+01 -1.41481e+00 -7.69921e+00
       O -8.85557e+00 -3.43256e+01 -1.46866e+01
       H -9.20248e+00 -3.35348e+01 -1.51546e+01
       H -9.64288e+00 -3.46919e+01 -1.43090e+01
       O -1.42765e+01 -2.34873e+01 -3.08693e+01
       H -1.41464e+01 -2.30622e+01 -3.16808e+01
       H -1.50604e+01 -2.39915e+01 -3.10680e+01
       O -1.02197e+01 -2.67028e+01 -1.98728e+01
       H -9.73382e+00 -2.58542e+01 -1.99946e+01
       H -9.66765e+00 -2.71399e+01 -2.05143e+01
       O -1.34661e+01 -6.61067e+00 -4.89018e+00
       H -1.37815e+01 -6.38523e+00 -3.95137e+00
       H -1.34669e+01 -5.79305e+00 -5.38535e+00
       O -1.87400e+01 -1.84518e+01 -3.42912e+01
       H -1.82480e+01 -1.78510e+01 -3.50121e+01
       H -1.79801e+01 -1.86120e+01 -3.36942e+01
       O -2.64700e+01 -2.34755e+01 -1.39009e+01
       H -2.65770e+01 -2.25397e+01 -1.43039e+01
       H -2.70222e+01 -2.40227e+01 -1.44990e+01
       O -2.38429e+01 -1.82416e+01  7.94611e+00
       H -2.32635e+01 -1.80682e+01  7.20244e+00
       H -2.44047e+01 -1.74599e+01  8.02182e+00
       O -7.36472e+00 -2.43739e+01 -4.99035e+00
       H -7.59900e+00 -2.39771e+01 -4.12577e+00
       H -6.45158e+00 -2.39808e+01 -5.12457e+00
       O -1.02013e+01 -2.01156e+01 -4.62598e+00
       H -9.61187e+00 -2.05908e+01 -5.28293e+00
       H -9.84020e+00 -2.02617e+01 -3.75668e+00
       O  3.85828e+00 -6.67018e+00  1.76173e+01
       H  3.79520e+00 -5.76972e+00  1.78802e+01
       H  4.67322e+00 -6.61961e+00  1.70830e+01
       O -9.57797e+00 -1.26419e+00 -1.61736e+01
       H -1.02873e+01 -1.08254e+00 -1.67903e+01
       H -9.90645e+00 -1.08852e+00 -1.52452e+01
       O -3.23516e+00 -1.88254e+00 -3.85149e+00
       H -4.22898e+00 -2.00953e+00 -3.86967e+00
       H -2.94411e+00 -2.35254e+00 -3.01154e+00
       O -1.15393e+01 -1.29760e+01 -2.36441e+01
       H -1.11754e+01 -1.21073e+01 -2.39508e+01
       H -1.24543e+01 -1.28777e+01 -2.38187e+01
       O -7.88656e+00 -1.44952e+01 -2.16553e+01
       H -8.10421e+00 -1.42470e+01 -2.25471e+01
       H -8.25510e+00 -1.37370e+01 -2.12483e+01
       O -9.39858e+00 -1.16828e+01 -2.76244e+01
       H -1.01182e+01 -1.11659e+01 -2.71924e+01
       H -9.56427e+00 -1.13368e+01 -2.84973e+01
       O -1.91653e+01 -2.80860e+01 -1.81485e+01
       H -1.86005e+01 -2.88330e+01 -1.84095e+01
       H -1.88358e+01 -2.74154e+01 -1.87446e+01
       O -3.24922e+00 -6.35115e+00 -1.35983e+01
       H -2.90008e+00 -5.86484e+00 -1.43745e+01
       H -4.17985e+00 -6.70783e+00 -1.38395e+01
       O -1.60842e+01 -2.11407e+01 -3.45306e+00
       H -1.64864e+01 -2.06888e+01 -4.23788e+00
       H -1.63103e+01 -2.20241e+01 -3.66605e+00
       O -9.26578e+00 -5.47206e+00 -1.70202e+01
       H -1.01181e+01 -5.13028e+00 -1.72377e+01
       H -8.68302e+00 -4.70386e+00 -1.72479e+01
       O -1.23643e+01 -1.17811e+01 -1.35828e+01
       H -1.27631e+01 -1.11122e+01 -1.29940e+01
       H -1.19633e+01 -1.10748e+01 -1.41126e+01
       O  9.70754e+00  5.58240e+00 -3.47268e+01
       H  9.79350e+00  5.13686e+00 -3.55783e+01
       H  9.65360e+00  6.54808e+00 -3.50110e+01
       O -2.46064e+01 -1.60516e+01 -6.40702e+00
       H -2.38647e+01 -1.58803e+01 -7.01610e+00
       H -2.41157e+01 -1.57891e+01 -5.62108e+00
       O -1.93321e+01 -2.64143e+01 -1.56466e+01
       H -1.85476e+01 -2.65606e+01 -1.62588e+01
       H -1.99878e+01 -2.59459e+01 -1.61969e+01
       O -6.89516e+00 -1.81099e+01 -6.32039e+00
       H -7.09780e+00 -1.71958e+01 -6.06738e+00
       H -7.66637e+00 -1.83357e+01 -6.89883e+00
       O -1.29162e+01 -1.81629e+01 -2.63879e+01
       H -1.32541e+01 -1.74738e+01 -2.69450e+01
       H -1.21104e+01 -1.83857e+01 -2.69441e+01
       O -1.09606e+01 -3.19909e+00 -1.23559e+01
       H -1.10681e+01 -3.41360e+00 -1.33189e+01
       H -1.17276e+01 -2.66184e+00 -1.22360e+01
       O -2.39718e+01 -2.31162e+01 -2.09526e+01
       H -2.45435e+01 -2.36524e+01 -2.02974e+01
       H -2.44914e+01 -2.33156e+01 -2.17615e+01
       O -1.20634e+01 -1.71972e+01 -1.17825e+01
       H -1.20778e+01 -1.76781e+01 -1.26716e+01
       H -1.17376e+01 -1.63399e+01 -1.21223e+01
       O -1.54676e+01 -3.37952e+01 -3.49638e+01
       H -1.51115e+01 -3.29857e+01 -3.44183e+01
       H -1.51789e+01 -3.35698e+01 -3.58695e+01
       O -2.04973e+01 -9.26347e+00 -1.36387e+01
       H -2.12366e+01 -9.74591e+00 -1.32170e+01
       H -2.00074e+01 -1.00938e+01 -1.39565e+01
       O -1.08657e+01 -2.73015e+01 -2.34377e+01
       H -1.07646e+01 -2.68244e+01 -2.42530e+01
       H -1.17418e+01 -2.76433e+01 -2.33965e+01
       O -1.50659e+01 -2.10302e+01 -1.08020e+01
       H -1.46965e+01 -2.01562e+01 -1.08534e+01
       H -1.50812e+01 -2.10810e+01 -9.87265e+00
       O -2.68728e+01 -2.86482e+01 -2.62352e+01
       H -2.78602e+01 -2.86332e+01 -2.63546e+01
       H -2.66696e+01 -2.95379e+01 -2.64204e+01
       O -1.56172e+01 -1.64605e+01 -5.11869e+00
       H -1.64202e+01 -1.60865e+01 -4.94571e+00
       H -1.49480e+01 -1.58790e+01 -4.69212e+00
       O -3.93223e+00 -2.71662e+01 -3.23429e+01
       H -3.70258e+00 -2.62112e+01 -3.23253e+01
       H -3.30273e+00 -2.75827e+01 -3.28859e+01
       O -1.18676e+00 -2.00388e+01 -2.50171e+01
       H -2.91487e-01 -2.01739e+01 -2.53637e+01
       H -1.31394e+00 -2.05835e+01 -2.41852e+01
       O -1.05677e+01 -9.61058e+00 -1.15160e+01
       H -1.09771e+01 -9.17263e+00 -1.07314e+01
       H -1.10060e+01 -9.04678e+00 -1.22253e+01
       O -1.78392e+01  5.31705e-02 -1.86668e+01
       H -1.77979e+01 -6.25875e-01 -1.79791e+01
       H -1.69000e+01  7.13572e-02 -1.89786e+01
       O -9.25802e+00  3.23134e-02 -1.98509e+01
       H -9.03613e+00  4.76456e-02 -2.08412e+01
       H -8.60460e+00  6.69007e-01 -1.94405e+01
       O -9.51488e+00 -9.84373e-01  6.70489e-02
       H -9.80808e+00 -6.89606e-01 -8.14436e-01
       H -9.94782e+00 -3.04357e-01  6.11657e-01
       O -1.54569e+01 -1.23464e+01 -5.23225e+00
       H -1.51196e+01 -1.16588e+01 -4.61593e+00
       H -1.59515e+01 -1.17738e+01 -5.90534e+00
       O -1.32587e+01 -2.02900e+01 -1.56655e+01
       H -1.42486e+01 -2.03745e+01 -1.56805e+01
       H -1.29500e+01 -2.12713e+01 -1.56630e+01
       O -2.43094e+01 -1.38749e+01 -1.09022e+01
       H -2.34436e+01 -1.39344e+01 -1.04648e+01
       H -2.46510e+01 -1.48081e+01 -1.08749e+01
       O -1.01305e+01 -7.53982e+00 -7.55601e+00
       H -1.08420e+01 -8.15240e+00 -7.85232e+00
       H -1.04031e+01 -6.80309e+00 -8.05609e+00
       O -2.21873e+01 -2.34690e+01 -4.15178e+01
       H -2.26223e+01 -2.28748e+01 -4.20819e+01
       H -2.20195e+01 -2.43304e+01 -4.20027e+01
       O -8.32803e+00 -2.74939e+01 -5.52682e+00
       H -8.51141e+00 -2.80923e+01 -6.31298e+00
       H -7.43633e+00 -2.71468e+01 -5.83080e+00
       O -2.18959e+00 -9.33579e+00 -1.41024e+01
       H -1.32823e+00 -9.51016e+00 -1.37600e+01
       H -2.32574e+00 -8.42190e+00 -1.38221e+01
       O -3.52391e+01 -1.75385e+01  8.49334e+00
       H -3.54691e+01 -1.74446e+01  9.43685e+00
       H -3.49398e+01 -1.66432e+01  8.24110e+00
       O -8.13876e+00 -1.59163e+01 -5.55232e+00
       H -8.99133e+00 -1.61130e+01 -5.09570e+00
       H -8.56387e+00 -1.57490e+01 -6.45557e+00
       O -2.55013e+01 -1.72940e+01  1.31405e+01
       H -2.57286e+01 -1.81937e+01  1.32965e+01
       H -2.46029e+01 -1.73402e+01  1.33445e+01
       O -9.38777e+00 -2.91335e+01 -2.59801e+01
       H -9.53841e+00 -2.88767e+01 -2.68942e+01
       H -8.89785e+00 -2.99654e+01 -2.59902e+01
       O -1.85207e+01 -2.38977e+01 -7.41838e+00
       H -1.78338e+01 -2.46565e+01 -7.35157e+00
       H -1.93257e+01 -2.44108e+01 -7.39653e+00
       O -1.50933e+01 -1.78752e+01  1.04027e+01
       H -1.50532e+01 -1.72919e+01  9.61086e+00
       H -1.55387e+01 -1.85971e+01  1.00231e+01
       O -1.59327e+01 -1.09931e+01 -7.47174e+00
       H -1.59314e+01 -1.01510e+01 -8.03536e+00
       H -1.58950e+01 -1.16778e+01 -8.28355e+00
       O -3.29706e+01 -1.78643e+01 -4.81850e+00
       H -3.35897e+01 -1.80075e+01 -4.10912e+00
       H -3.22454e+01 -1.83393e+01 -4.43572e+00
       O -1.80395e+01 -2.21454e+01 -1.90981e+01
       H -1.82890e+01 -2.28972e+01 -1.85396e+01
       H -1.71329e+01 -2.20107e+01 -1.88620e+01
       O -1.13637e+01 -7.76546e+00 -3.54031e+00
       H -1.21276e+01 -7.37688e+00 -4.07620e+00
       H -1.17890e+01 -7.82543e+00 -2.68488e+00
       O -1.54487e+01 -1.98023e+01  2.15459e+00
       H -1.48969e+01 -1.97986e+01  1.35728e+00
       H -1.63004e+01 -1.94093e+01  1.73463e+00
       O -1.11183e+01 -2.80946e+01 -4.92387e+00
       H -1.06848e+01 -2.73167e+01 -4.47457e+00
       H -1.03706e+01 -2.85072e+01 -5.44582e+00
       O -2.92988e+00 -7.07987e+00  7.57286e-01
       H -2.67361e+00 -7.80988e+00  1.33704e+00
       H -3.92518e+00 -7.05547e+00  8.46381e-01
       O -2.28636e+01 -2.31813e+01 -3.10659e+00
       H -2.27354e+01 -2.22592e+01 -2.92510e+00
       H -2.19240e+01 -2.33469e+01 -3.25214e+00
       O  5.10074e-02 -1.39206e+00  7.84494e-01
       H  7.13750e-01 -8.21960e-01  1.25514e+00
       H  4.85983e-01 -1.67979e+00  1.22127e-02
       O -1.73717e+01 -2.18434e+01 -9.03161e+00
       H -1.66154e+01 -2.23565e+01 -9.43886e+00
       H -1.78555e+01 -2.25414e+01 -8.50624e+00
       O -1.76371e+01 -2.06466e+01 -1.15645e+01
       H -1.80005e+01 -2.11228e+01 -1.07900e+01
       H -1.67119e+01 -2.08633e+01 -1.14724e+01
       O -2.31764e+01 -1.27109e+01 -1.06289e+00
       H -2.25380e+01 -1.24015e+01 -1.71097e+00
       H -2.39572e+01 -1.23809e+01 -1.56720e+00
       O -4.98014e+00 -5.41562e+00 -3.03688e+00
       H -4.38867e+00 -5.94997e+00 -3.74228e+00
       H -4.57950e+00 -4.50903e+00 -3.15326e+00
       O -6.48756e+00 -1.65953e+01 -1.52070e+01
       H -6.53721e+00 -1.74791e+01 -1.54808e+01
       H -6.62882e+00 -1.62346e+01 -1.61255e+01
       O -1.93141e+01 -1.92003e+01 -1.33527e+01
       H -1.95155e+01 -1.99285e+01 -1.39438e+01
       H -1.86836e+01 -1.96555e+01 -1.28177e+01
       O -1.38557e+00 -1.05691e+01 -9.92148e+00
       H -2.02804e+00 -1.11989e+01 -1.02625e+01
       H -1.83880e+00 -1.00248e+01 -9.27954e+00
       O -4.33232e+00 -2.07960e+01 -1.08338e+01
       H -3.61051e+00 -2.06530e+01 -1.01482e+01
       H -4.23060e+00 -2.17262e+01 -1.10517e+01
       O -6.29474e+00 -5.11743e+00 -3.07420e+01
       H -5.74470e+00 -5.35940e+00 -3.14697e+01
       H -7.07119e+00 -4.85646e+00 -3.12847e+01
       O -1.49385e+01 -1.80060e+00 -1.64116e+00
       H -1.43499e+01 -1.24181e+00 -1.14606e+00
       H -1.57442e+01 -1.72106e+00 -1.07334e+00
       O -7.72369e+00 -3.28309e+00 -1.70552e+01
       H -6.95352e+00 -3.54240e+00 -1.64925e+01
       H -7.93993e+00 -2.42171e+00 -1.66438e+01
       O -1.17354e+01  1.63782e+00 -1.02286e+01
       H -1.17901e+01  2.61058e+00 -1.05058e+01
       H -1.11315e+01  1.27326e+00 -1.09239e+01
       O -5.12591e+00 -1.45886e+00 -1.78425e+01
       H -5.45646e+00 -1.93866e+00 -1.70113e+01
       H -4.77930e+00 -2.12809e+00 -1.84065e+01
       O -1.92243e+01 -1.44561e+01 -4.63305e+00
       H -1.97249e+01 -1.37408e+01 -4.28639e+00
       H -1.83844e+01 -1.41720e+01 -4.18595e+00
       O -1.76715e+01 -2.35304e+01 -4.18550e+00
       H -1.69039e+01 -2.39807e+01 -3.79973e+00
       H -1.73695e+01 -2.33105e+01 -5.07177e+00
       O -2.62142e+00 -3.27940e+00 -6.48093e+00
       H -3.50874e+00 -3.21684e+00 -6.91017e+00
       H -2.78050e+00 -2.73224e+00 -5.66097e+00
       O -1.70385e+01 -1.89294e+01 -5.37704e+00
       H -1.73744e+01 -1.89181e+01 -6.26511e+00
       H -1.65667e+01 -1.81789e+01 -5.39203e+00
       O -7.77545e+00 -2.52460e+01 -2.94405e+01
       H -6.84487e+00 -2.52267e+01 -2.97849e+01
       H -7.63679e+00 -2.46575e+01 -2.86662e+01
       O -2.80295e+00 -2.06612e+01 -1.37169e+01
       H -2.26223e+00 -2.08603e+01 -1.29533e+01
       H -2.49009e+00 -1.97794e+01 -1.38953e+01
       O -1.27175e+01 -1.82985e+01  4.35514e+00
       H -1.34879e+01 -1.88483e+01  4.65686e+00
       H -1.28134e+01 -1.75027e+01  5.03598e+00
       O -1.68970e+01 -1.57938e+01 -1.60642e+01
       H -1.68363e+01 -1.67867e+01 -1.57374e+01
       H -1.60008e+01 -1.55847e+01 -1.64752e+01
       O -1.16515e+01 -3.60916e+00 -1.77125e+01
       H -1.17471e+01 -2.69872e+00 -1.74577e+01
       H -1.24641e+01 -3.75001e+00 -1.82342e+01
       O -2.25047e+01 -1.62606e+01 -1.21948e+01
       H -2.15391e+01 -1.64846e+01 -1.22151e+01
       H -2.27270e+01 -1.65338e+01 -1.30775e+01
       O -1.25163e+01 -2.30360e+01 -1.55071e+01
       H -1.27201e+01 -2.28867e+01 -1.45395e+01
       H -1.22123e+01 -2.39535e+01 -1.55350e+01
       O -1.60345e+01  1.51573e+00 -1.01842e+01
       H -1.53399e+01  1.04032e+00 -9.63542e+00
       H -1.67810e+01  1.41735e+00 -9.55145e+00
       O -5.98200e-01 -1.82817e+01 -1.04798e+01
       H -9.72851e-01 -1.76582e+01 -9.87623e+00
       H -1.22664e+00 -1.84487e+01 -1.11944e+01
       O -7.63653e+00 -3.20240e+01 -8.73614e+00
       H -7.42157e+00 -3.13040e+01 -8.10622e+00
       H -6.77404e+00 -3.24510e+01 -8.92069e+00
       O -2.17281e+01 -1.17054e+01  1.23526e+00
       H -2.23253e+01 -1.18407e+01  4.56786e-01
       H -2.22116e+01 -1.09495e+01  1.63707e+00
       O -5.89545e+00 -2.13650e+01 -8.06813e+00
       H -5.47517e+00 -2.04710e+01 -7.84862e+00
       H -6.16326e+00 -2.12870e+01 -9.03297e+00
       O -8.70281e+00 -2.03820e+01 -2.73697e+01
       H -9.32853e+00 -2.10844e+01 -2.75732e+01
       H -9.23155e+00 -1.95923e+01 -2.71950e+01
       O -3.80358e+01 -2.23880e+01 -2.27998e+01
       H -3.71744e+01 -2.19618e+01 -2.29277e+01
       H -3.81832e+01 -2.21444e+01 -2.18507e+01
       O -3.46257e+01 -1.80997e+01 -2.24697e+00
       H -3.51240e+01 -1.75053e+01 -1.69024e+00
       H -3.45872e+01 -1.89483e+01 -1.76697e+00
       O -3.62540e+00 -1.29942e+01 -4.85546e+00
       H -3.71553e+00 -1.27881e+01 -5.80917e+00
       H -3.35353e+00 -1.39291e+01 -4.81577e+00
       O -1.08428e+01 -2.06692e+01 -3.34263e+01
       H -9.88614e+00 -2.03494e+01 -3.34110e+01
       H -1.08985e+01 -2.03013e+01 -3.43154e+01
       O -1.80591e+01 -2.73030e+01 -2.63779e+01
       H -1.76870e+01 -2.65165e+01 -2.67483e+01
       H -1.73091e+01 -2.78366e+01 -2.60097e+01
       O -4.49088e+00 -1.13200e+01  5.00004e+00
       H -4.29934e+00 -1.20011e+01  5.68752e+00
       H -5.25866e+00 -1.08621e+01  5.35682e+00
       O -3.26273e+01 -7.53110e+00 -9.53199e+00
       H -3.26233e+01 -6.96419e+00 -1.02995e+01
       H -3.35036e+01 -7.95628e+00 -9.58919e+00
       O -2.92558e+01 -1.12963e+01 -7.19310e+00
       H -2.99310e+01 -1.06782e+01 -7.43761e+00
       H -2.95912e+01 -1.21264e+01 -7.46805e+00
       O -2.57121e+01 -1.65384e+00 -1.52506e+01
       H -2.56364e+01 -2.53890e+00 -1.49015e+01
       H -2.47901e+01 -1.32809e+00 -1.53544e+01
       O -7.31044e+00 -2.86940e+00 -4.86994e-01
       H -7.98308e+00 -2.24332e+00 -7.76668e-01
       H -7.17828e+00 -3.44745e+00 -1.24970e+00
       O -8.17144e+00 -3.72526e+00 -5.18278e+00
       H -8.98948e+00 -4.21136e+00 -5.10301e+00
       H -7.68306e+00 -4.32832e+00 -5.77153e+00
       O -8.28707e+00 -2.12588e+01 -6.10190e+00
       H -7.77966e+00 -2.19528e+01 -6.56823e+00
       H -7.51488e+00 -2.08722e+01 -5.68700e+00
       O -3.78967e+01 -1.70461e+01 -4.02395e+00
       H -3.79465e+01 -1.75674e+01 -4.82678e+00
       H -3.76419e+01 -1.61842e+01 -4.44341e+00
       O -2.13413e+01 -1.41938e+00 -3.52996e+01
       H -2.22207e+01 -1.43362e+00 -3.57842e+01
       H -2.16610e+01 -1.62238e+00 -3.44314e+01
       O -2.07087e+01 -7.17071e+00 -1.55008e+01
       H -2.05435e+01 -8.09943e+00 -1.52194e+01
       H -1.99682e+01 -6.76160e+00 -1.50430e+01
       O -1.08085e+01 -1.42170e+01  5.18279e+00
       H -1.03781e+01 -1.33968e+01  5.03458e+00
       H -1.01143e+01 -1.47179e+01  4.66344e+00
       O -5.85517e+00 -6.81722e+00 -1.46453e+01
       H -5.59662e+00 -6.33403e+00 -1.54674e+01
       H -6.02486e+00 -7.74228e+00 -1.49426e+01
       O -1.19549e+01 -8.91291e+00 -9.39234e+00
       H -1.23910e+01 -9.67689e+00 -9.04633e+00
       H -1.26868e+01 -8.33844e+00 -9.42022e+00
       O -1.95461e+01 -1.98505e+01 -4.85669e+00
       H -2.02088e+01 -1.91207e+01 -4.83274e+00
       H -1.87635e+01 -1.93411e+01 -4.97035e+00
       O -2.51911e+01 -4.09669e+00 -1.38490e+01
       H -2.43595e+01 -4.43126e+00 -1.40813e+01
       H -2.56097e+01 -4.71974e+00 -1.32281e+01
       O -2.80902e+01 -3.00821e+01 -3.99525e+00
       H -2.85976e+01 -2.95753e+01 -4.63416e+00
       H -2.74006e+01 -3.04510e+01 -4.61993e+00
       O -8.73636e+00 -2.23220e+01 -1.14589e+01
       H -9.22742e+00 -2.21562e+01 -1.22348e+01
       H -9.38678e+00 -2.23267e+01 -1.07247e+01
       O -4.57378e+00 -3.01233e+01 -3.24752e+01
       H -3.99707e+00 -3.02916e+01 -3.32364e+01
       H -4.70113e+00 -2.91403e+01 -3.25434e+01
       O -1.33706e+01 -1.47363e+01 -1.39700e+01
       H -1.26637e+01 -1.46091e+01 -1.32760e+01
       H -1.37291e+01 -1.56526e+01 -1.38022e+01
       O -1.23835e+01 -2.59190e+01 -3.28797e+01
       H -1.18994e+01 -2.50912e+01 -3.25997e+01