4
# CELL(abcABC): 1000.00000  1000.00000  1000.00000    90.00000    90.00000    90.00000  Step:         781  Bead:       0 positions{angstrom}  cell{angstrom}
       O -3.11963e+00  1.06518e+00  3.49007e-01
       H -3.12173e+00  7.00972e-01  1.24785e+00
       H -3.30243e+00  4.03994e-01 -2.80062e-01
       H -3.44275e+00  2.05793e+00  1.77962e-01
