14
# CELL(abcABC): 1000.00000  1000.00000  1000.00000    90.00000    90.00000    90.00000  Step:          99  Bead:       0 positions{angstrom}  cell{angstrom}
       C -6.91718e-01  6.30847e-01 -6.47542e-02
       C  5.39114e-01 -4.20353e-02  6.52796e-01
       C -1.88921e+00 -2.95886e-01 -2.44490e-01
       C -1.01038e+00  1.97974e+00  6.06546e-01
       H -1.42848e+00  1.88175e+00  1.59674e+00
       H -1.72983e+00  2.57521e+00  5.50803e-02
       H -1.49364e-01  2.62731e+00  7.35742e-01
       H -1.57758e+00 -1.15733e+00 -8.83729e-01
       H -2.75483e+00  1.53608e-01 -7.08399e-01
       H -2.15712e+00 -7.82052e-01  6.67473e-01
       H  1.36408e+00  4.68938e-01  6.05942e-01
       H  6.62141e-01 -1.01296e+00  2.59121e-01
       H  2.86684e-01 -1.32005e-01  1.69192e+00
       H -3.13340e-01  7.74549e-01 -1.04476e+00
