ITEM: TIMESTEP
1000
ITEM: NUMBER OF ATOMS
11135
ITEM: BOX BOUNDS pp pp pp
-2.4500000000000000e+01 2.4500000000000000e+01
-2.4500000000000000e+01 2.4500000000000000e+01
-2.4500000000000000e+01 2.4500000000000000e+01
ITEM: ATOMS id type x y z vx vy vz ix iy iz
47 16 -22.5798 -16.0815 -19.2281 -0.000610322 -0.0028913 -0.000284841 0 0 0
48 6 -23.157 -15.4019 -19.6358 -0.00689495 -0.0201926 0.00211414 0 0 0
49 6 -22.503 -16.6971 -19.9846 0.0111173 -0.000549797 -0.0196724 0 0 0
66 6 -18.2614 -19.2301 -16.8661 0.00510512 0.0263595 0.00896488 0 0 0
67 6 -18.4139 -20.7215 -16.8321 -0.0101438 -0.00188307 -0.0237542 0 0 0
73 6 -21.5493 -18.0338 -16.5038 -0.0230752 0.0151586 -0.00633207 0 0 0
76 6 -18.1651 -16.6123 -17.1839 -0.0080083 0.0291187 0.00155461 0 0 0
218 16 -18.993 -18.0098 -17.9705 0.00158553 0.00141585 -0.00514316 0 0 0
219 6 -19.9387 -18.2288 -18.0753 -0.0150826 -0.0182395 0.0106514 0 0 0
220 6 -18.7322 -17.9201 -18.9135 -0.009929 -0.0137304 -0.00380826 0 0 0
233 16 -17.9517 -20.793 -23.1743 0.00388994 -0.00545511 0.000256216 0 0 0
234 6 -18.3064 -21.1034 -22.3152 0.00590585 -0.00156545 0.0173329 0 0 0
235 6 -18.4011 -19.9253 -23.2604 -0.025947 -0.0305267 -0.00851837 0 0 0
236 16 -23.6128 -20.531 -17.8988 0.0027907 0.00114029 0.00108966 0 0 0
237 6 -23.5556 -20.963 -17.0181 -0.0284971 -0.00374965 -0.0165771 0 0 0
238 6 -22.8755 -19.8923 -17.853 0.00855108 -0.0152873 -0.00554603 0 0 0
239 16 -22.4738 -18.2704 -20.9873 0.00573726 -0.00361502 0.00191385 0 0 0
240 6 -22.2155 -18.1792 -21.9282 0.0173456 -0.00116681 0.0226159 0 0 0
241 6 -23.3152 -18.7634 -21.0932 0.0368019 -0.0227063 -0.00604987 0 0 0
248 16 -21.7111 -18.4976 -18.324 -0.00428221 -0.00505568 0.00181308 0 0 0
249 6 -22.0949 -17.594 -18.3783 0.0258035 0.0320991 0.00132662 0 0 0
250 6 -21.7802 -18.7222 -19.2766 -0.00718308 0.00873839 -0.00173386 0 0 0
251 16 -18.3641 -17.8333 -20.6337 0.0064973 0.00560369 -0.00461324 0 0 0
253 6 -18.6093 -18.1614 -21.5245 -0.0144877 -0.00181107 0.00447562 0 0 0
257 16 -19.3075 -18.4103 -23.214 0.00475147 -0.000128352 -0.00462444 0 0 0
258 6 -20.2839 -18.3747 -23.3012 -0.00876582 -0.00238163 -0.00577448 0 0 0
259 6 -19.0613 -17.8526 -23.9817 -0.0236438 0.0173393 0.00548388 0 0 0
269 16 -18.86 -22.01 -17.9839 0.00521084 0.00149421 0.00110289 0 0 0
270 6 -19.4862 -22.7651 -17.9609 -0.0209829 -0.0180732 0.00523177 0 0 0
271 6 -17.9924 -22.4585 -17.8792 0.00571929 -0.00442105 -0.0107893 0 0 0
383 16 -18.6529 -21.8358 -20.7351 0.0022342 0.00219052 0.0109236 0 0 0
384 6 -18.9907 -21.7406 -19.8224 -0.00352487 0.0125676 -0.0181065 0 0 0
385 6 -17.693 -21.7435 -20.5467 0.0105483 -0.00684644 -0.00109368 0 0 0
395 16 -21.9939 -17.9193 -23.7035 -0.00516326 0.00105454 -0.00245959 0 0 0
396 6 -21.9307 -16.9398 -23.7715 0.00195109 -0.00309092 -0.0354148 0 0 0
397 6 -22.6333 -18.0993 -24.4192 -0.00587931 0.00357733 -0.00129468 0 0 0
569 16 -23.9598 -22.0222 -20.1883 0.000816389 0.00938903 0.00103034 0 0 0
571 6 -23.7134 -21.5682 -19.3554 0.0187999 -0.00608017 0.0013145 0 0 0
626 16 -20.565 -24.1794 -17.9959 0.00232985 0.00201293 -0.00226926 0 0 0
1725 6 -5.8776 -0.014243 -11.2112 0.0199061 -0.0435194 0.0209481 0 0 0
10381 6 18.5457 -4.01291 -24.0728 0.00543139 -0.0172372 -0.00880127 0 0 1
629 16 -22.7038 -24.206 -21.3708 -0.00059617 -0.00271621 -0.00332082 0 0 0
631 6 -23.1061 -23.3739 -21.0339 0.013146 -0.00194241 0.0104706 0 0 0
657 6 -18.1294 -22.2235 -8.44624 0.017893 -0.0465822 -0.0333861 0 0 0
2843 16 -4.61044 -0.957549 -8.34934 -0.00271367 0.00684703 -0.00272878 0 0 0
646 6 -19.4517 -23.2891 -21.4141 0.00376229 -0.000713226 -0.0141331 0 0 0
68 16 -10.6823 -19.8152 -17.7927 0.00172174 -0.00629702 0.0039671 0 0 0
8895 6 -21.8164 -6.11115 -24.379 0.000843838 -0.0191674 0.000590667 0 0 1
1740 6 -19.0805 -0.0921745 -14.3065 -0.0161747 -0.00946445 -0.0188515 0 0 0
212 16 -15.1454 -20.9267 -22.5569 0.00251239 0.000401217 0.00347741 0 0 0
213 6 -15.4339 -21.1954 -21.6599 -0.00495897 -0.00236971 -0.00580944 0 0 0
214 6 -16.0164 -20.8461 -22.9916 0.0256273 0.00944675 0.028766 0 0 0
221 16 -13.5052 -17.5311 -19.9282 -0.00439676 -0.00169269 -0.00245497 0 0 0
222 6 -13.4996 -16.5629 -20.105 0.00701662 -0.0421712 0.00700204 0 0 0
223 6 -12.8014 -17.8096 -20.5498 -0.00189934 0.0237604 -0.0188844 0 0 0
227 16 -12.8954 -18.2575 -17.3564 0.00240069 0.00287398 0.00259798 0 0 0
228 6 -13.0763 -17.9346 -18.2648 -0.0056548 -0.00789239 0.015743 0 0 0
229 6 -12.1538 -18.8757 -17.5406 0.00419665 0.0153681 -0.0179358 0 0 0
245 16 -16.5681 -20.4088 -14.0117 -0.00412825 -0.0012519 0.00539315 0 0 0
246 6 -17.0837 -20.2215 -14.8261 -0.0174894 0.00408105 -0.00435239 0 0 0
252 6 -17.4813 -18.2235 -20.4853 0.00697237 -0.00591969 -0.0106096 0 0 0
281 16 -12.531 -20.6208 -21.5022 2.74343e-06 0.00261941 0.00134546 0 0 0
282 6 -13.4721 -20.5802 -21.7596 -0.0073615 0.0198098 -0.0177 0 0 0
283 6 -12.2544 -19.6839 -21.5544 0.0156318 0.00650289 -0.0192106 0 0 0
287 16 -11.4506 -18.0643 -21.7163 0.00104048 0.00204305 -0.00101505 0 0 0
289 6 -11.2104 -17.1176 -21.812 -0.00502131 0.0131108 -0.0030617 0 0 0
365 16 -11.8018 -21.9352 -19.1415 -0.00353887 0.0011391 -0.00120097 0 0 0
366 6 -12.046 -21.5622 -20.0166 -0.00305289 -0.0210263 0.0014406 0 0 0
367 6 -11.4283 -21.1405 -18.6996 -0.00805526 0.00738298 0.0180979 0 0 0
371 16 -15.9427 -18.655 -19.2517 0.0063316 -0.00593801 -0.00296964 0 0 0
372 6 -15.1008 -18.2503 -19.5555 0.0166853 -0.0142412 -0.000220286 0 0 0
373 6 -15.9515 -18.361 -18.3192 0.00813657 0.0189502 0.00403911 0 0 0
377 16 -13.5591 -23.2589 -17.4749 0.00265935 -0.00601415 -0.00540012 0 0 0
378 6 -13.2398 -22.9472 -16.6033 -0.0251756 0.0425522 -0.0226499 0 0 0
379 6 -12.9609 -22.7747 -18.0862 0.00743842 0.0215937 0.00900146 0 0 0
2834 16 10.4689 -0.134598 -18.7887 -0.00620274 0.00380007 -0.00225622 0 0 0
640 6 -9.82724 -24.5008 -18.8532 0.0120912 0.0324748 -0.00494466 0 0 0
632 16 -16.2642 -22.8475 -17.5659 -0.00271361 0.00696165 0.00087599 0 0 0
633 6 -15.3155 -23.1009 -17.6075 -0.0243213 0.00647717 0.00749926 0 0 0
634 6 -16.4205 -22.9785 -16.6051 0.0019637 -0.026398 -0.00750392 0 0 0
636 6 -9.90114 -23.6987 -16.6191 0.00440862 -0.0101391 -0.000223398 0 0 0
1403 16 23.8856 -20.5542 -8.67809 -0.00149166 0.000807978 0.00183549 0 0 0
639 6 -10.504 -23.1426 -18.7694 -0.00521846 -0.000435942 -0.00456887 0 0 0
647 16 -16.1062 -21.3089 -19.954 -0.0027853 0.00194627 0.00269294 0 0 0
648 6 -16.0405 -21.8164 -19.1193 -0.000939231 0.014508 -0.00386621 0 0 0
649 6 -16.0196 -20.3858 -19.6259 -0.0119549 0.00871002 -0.0194226 0 0 0
1538 16 23.667 -8.19421 -24.4794 0.000866245 0.00483852 0.00258262 0 0 1
8715 6 -12.3702 -20.9803 -23.5094 0.0190211 0.00393975 -0.00414559 0 0 1
69 6 -10.3397 -20.0063 -16.8867 -0.0119533 -0.0112974 0.00101958 0 0 0
70 6 -9.86051 -19.4548 -18.1873 -0.00205934 0.000772809 -0.00874377 0 0 0
2307 6 -21.5319 -4.87049 -8.31229 0.00149831 -0.0132876 -0.0330942 0 0 0
644 16 -19.9082 -24.044 -21.8423 -0.00420945 -0.00187949 0.00195025 0 0 0
163 6 -6.96536 -24.3669 -23.2447 -0.0221892 -0.00209663 -0.0122798 0 0 0
288 6 -10.6229 -18.4768 -22.0439 0.0111406 0.0222698 0.00797727 0 0 0
305 16 -7.1237 -18.3043 -21.1049 -0.000873456 0.00235215 0.00162859 0 0 0
306 6 -7.88349 -18.5606 -21.6747 -0.0257131 0.00255935 -0.00568269 0 0 0
307 6 -7.00288 -17.3741 -21.4075 -0.0057904 -0.0122116 -0.0165412 0 0 0
521 16 -9.12754 -19.0992 -22.8371 -0.00304032 0.000321763 0.00540428 0 0 0
522 6 -9.00251 -18.7422 -23.7381 -0.0242558 -0.000232005 0.0200688 0 0 0
523 6 -9.04939 -20.0529 -23.0502 0.0128917 0.0378351 -0.00201246 0 0 0
524 16 -8.08057 -16.4698 -17.6459 -0.00370399 0.00661747 0.000996679 0 0 0
525 6 -8.13472 -17.4179 -17.8933 -0.0144498 0.0184479 -0.0203846 0 0 0
526 6 -8.49938 -16.4831 -16.7577 0.0137294 0.0128095 -0.0198793 0 0 0
1855 6 -10.5413 -0.0536257 -9.76307 0.0158745 -0.00360785 0.0159717 0 0 0
537 6 -7.73344 -21.9178 -23.9299 -0.0410838 -0.00945238 -0.00838274 0 0 0
1057 6 8.85005 -8.0755 -24.203 0.0180887 0.00882509 -0.0135473 0 0 0
539 16 -8.17733 -19.069 -18.642 -0.0017305 0.00229353 0.00321694 0 0 0
540 6 -7.88873 -19.9993 -18.5147 -0.0264866 -0.00468907 -0.00837371 0 0 0
541 6 -7.77746 -18.8557 -19.5074 -0.000729199 0.008422 -0.0208016 0 0 0
554 16 -7.65814 -21.7946 -18.3595 -0.00275413 0.00196978 0.000109709 0 0 0
555 6 -7.29501 -22.0545 -17.4867 -0.0133694 -0.00352062 -0.00986369 0 0 0
556 6 -8.42633 -22.4049 -18.4126 0.00756188 -0.0174007 -0.00624191 0 0 0
566 16 -6.22633 -22.7187 -23.4333 -0.00519033 -0.00255154 -0.0097411 0 0 0
567 6 -5.42598 -22.6425 -23.9952 -0.000865515 0.0175596 -0.0200617 0 0 0
568 6 -6.02627 -22.0352 -22.7607 0.00244463 -0.00874678 0.019523 0 0 0
623 16 -6.32039 -22.7811 -16.1528 0.000198384 -0.00279225 0.00115737 0 0 0
624 6 -5.82485 -23.6017 -16.2554 0.018469 -0.0110163 0.011225 0 0 0
625 6 -5.6025 -22.1124 -16.2693 -0.00857011 0.030559 0.000593246 0 0 0
638 16 -9.72628 -23.6287 -18.4197 -0.00202606 -0.0031053 -0.0020497 0 0 0
8680 6 -18.6872 -22.1928 -24.1085 0.00396582 0.00152318 -0.00940997 0 0 1
683 16 -4.78995 -17.8446 -19.4479 -0.000357161 0.0102864 0.000321861 0 0 0
684 6 -5.02049 -16.9506 -19.1199 -0.00927843 0.00220546 -0.0181889 0 0 0
685 6 -5.54874 -18.0325 -20.025 -0.00267544 -0.00414826 -0.00959293 0 0 0
872 16 -4.26262 -21.0826 -16.5344 0.00320265 -0.00535776 -0.00232943 0 0 0
874 6 -3.83324 -20.4142 -17.0892 -0.000549284 0.0263883 -0.022504 0 0 0
875 16 -5.64322 -20.589 -21.7643 0.00383908 -0.00430158 -0.00859009 0 0 0
876 6 -5.06747 -20.0638 -22.3692 -0.0253915 0.00366706 -0.00844419 0 0 0
877 6 -6.20128 -19.8582 -21.4345 0.0215548 -0.0301443 -0.00136531 0 0 0
1033 6 -4.97395 -18.6644 -24.2971 0.0163182 -0.00703953 -0.0114103 0 0 0
1208 16 -5.68085 -22.7218 -20.0438 0.00582107 0.000579902 0.00241349 0 0 0
1209 6 -6.36018 -22.3847 -19.4206 0.00812758 0.0141323 0.0027471 0 0 0
1210 6 -5.62939 -21.9599 -20.6602 -0.0215593 0.00491554 -0.0111524 0 0 0
1268 16 -3.27137 -24.0125 -19.8383 0.00260089 0.00097614 0.00155547 0 0 0
1270 6 -4.10368 -23.5 -19.9361 -0.00028395 -0.0226177 0.0306516 0 0 0
9262 6 -3.14621 -21.8236 -24.4797 -0.0102415 0.0116833 -0.00267084 0 0 1
702 6 0.952956 -19.7189 -16.747 -0.00239241 0.0180486 -0.0269772 0 0 0
703 6 1.18734 -21.1722 -16.9659 0.032823 0.0253613 -0.023437 0 0 0
709 6 -2.79288 -18.4159 -16.5919 0.0289433 0.0186707 -0.0132262 0 0 0
712 6 0.714745 -17.1795 -17.0463 0.0202994 -0.00728256 0.0158382 0 0 0
854 16 -0.0697695 -18.6108 -17.7864 0.00296473 -0.00292854 0.00468319 0 0 0
855 6 -1.02507 -18.766 -17.9078 -0.00547637 -0.00045983 0.0242827 0 0 0
856 6 0.250854 -18.7844 -18.701 0.00269985 -0.0112317 0.0250892 0 0 0
869 16 -1.42724 -21.3959 -23.843 0.00027623 -0.00276442 0.00515597 0 0 0
870 6 -0.827565 -21.2627 -23.0797 -0.00267027 -0.00677569 -0.0166368 0 0 0
871 6 -1.40621 -20.5012 -24.2535 0.0189659 -0.0227562 0.00342742 0 0 0
881 16 4.00298 -20.7296 -17.2677 0.00431961 -0.00344798 -0.007687 0 0 0
882 6 3.21651 -20.4871 -16.7455 0.0135518 -0.0312461 -0.014715 0 0 0
884 16 -2.81459 -19.2267 -18.2184 -0.00308154 0.00437763 0.0059448 0 0 0
885 6 -3.51444 -18.6601 -18.6348 0.00262574 0.0410509 -0.0361729 0 0 0
886 6 -2.69313 -19.8745 -18.9254 0.00437052 -0.0148319 -0.00317487 0 0 0
887 16 0.826038 -19.1005 -20.3183 0.00223434 -0.00186608 0.00404858 0 0 0
888 6 1.79086 -19.1348 -20.1355 0.0242637 -0.00543799 0.0166854 0 0 0
889 6 0.791744 -18.528 -21.1153 -0.0297799 0.0218343 0.0109403 0 0 0
893 16 0.736282 -17.5225 -22.5733 -0.00500434 0.00452885 -0.00151608 0 0 0
894 6 0.307318 -17.3368 -23.4313 0.00897078 0.00708375 0.0356394 0 0 0
895 6 1.67408 -17.4075 -22.8433 0.0229792 -0.0299441 -0.00946171 0 0 0
905 16 1.01002 -22.2317 -18.2728 0.00535534 -0.00238118 0.00256605 0 0 0
906 6 0.126441 -22.6545 -18.2934 0.0335785 0.0189008 -0.00187108 0 0 0
907 6 1.58695 -23.0242 -18.299 -0.00248345 0.0300209 -0.0311626 0 0 0
1007 16 3.49586 -19.4136 -19.6674 0.00483164 -0.00222564 0.00075366 0 0 0
1009 6 3.69757 -19.7704 -18.7755 -0.0110928 0.00711237 0.0291483 0 0 0
1019 16 0.343885 -21.4969 -21.6441 -0.00481048 0.00180797 0.00130827 0 0 0
1020 6 0.338222 -20.7129 -21.0568 0.00883228 -0.00177682 0.0145212 0 0 0
1021 6 1.28189 -21.7574 -21.543 0.00871309 -0.000460125 0.0402643 0 0 0
1031 16 -4.51361 -18.805 -23.4527 0.000685417 -0.00430778 0.00551323 0 0 0
1032 6 -4.23612 -17.8911 -23.2418 0.0210693 -0.0111614 -0.0187568 0 0 0
1082 16 3.14968 -16.8333 -23.6087 -0.00807025 -0.000869534 0.00726398 0 0 0
1084 6 4.09283 -16.5797 -23.513 -0.0132849 -0.00372638 0.0203147 0 0 0
1265 16 -1.31947 -23.5868 -18.0232 0.00352915 0.000156076 -0.00250328 0 0 0
1266 6 -2.11966 -23.6554 -18.5888 -0.0168313 -0.0236888 -0.00593409 0 0 0
3310 6 23.0883 -3.8222 -15.0724 -0.0258631 0.0230166 -0.00800494 0 0 0
1269 6 -2.76529 -23.7651 -20.6404 -0.00684382 0.0178607 0.0164684 0 0 0
1271 16 2.75876 -24.3171 -18.1122 0.00278119 0.000972545 -0.00169516 0 0 0
1272 6 3.49789 -23.8822 -18.5764 -0.00496969 0.0125209 -0.0125287 0 0 0
1273 6 3.1307 -24.3844 -17.2147 0.00822148 -0.0165139 0.00204884 0 0 0
1283 16 -1.42406 -23.616 -21.8593 -0.00327909 -0.00210801 -0.0021314 0 0 0
1284 6 -1.65441 -23.3018 -22.7462 -0.00487123 0.00799432 0.00763483 0 0 0
1285 6 -0.739123 -22.9547 -21.6224 0.00618484 0.0113748 -0.00465775 0 0 0
1286 16 3.13186 -21.6924 -21.156 -0.00288441 -0.00234555 0.00545726 0 0 0
1287 6 3.57756 -22.3049 -20.5443 0.00569449 0.00259038 0.0122836 0 0 0
1288 6 3.2198 -20.855 -20.6496 0.0167561 -0.00618535 -0.00574617 0 0 0
704 16 7.95857 -19.6179 -17.9122 -0.00438533 0.00383583 0.000708773 0 0 0
705 6 8.23951 -19.7603 -16.9761 -0.0142714 0.0223483 -0.0122921 0 0 0
706 6 8.79003 -19.2366 -18.266 0.00499993 0.0117638 -0.00852031 0 0 0
758 16 5.79389 -16.114 -23.9762 -0.000659288 0.0054022 -0.00179613 0 0 0
1876 6 -12.3736 -0.165399 -17.4857 0.00783916 -0.0211322 0.0167559 0 0 0
1051 6 4.46004 -9.21586 -24.433 -0.0160351 0.0157914 0.00748812 0 0 0
1175 16 10.6536 -21.3458 -24.362 0.00257772 0.0085821 0.00143462 0 0 0
848 16 4.32284 -21.0735 -23.5579 -0.0045447 -0.00022391 0.00599649 0 0 0
849 6 3.88029 -21.3972 -22.742 -0.0242277 -0.004503 -0.0350523 0 0 0
850 6 3.57661 -21.027 -24.1656 -0.0250973 0.0137746 -0.0251542 0 0 0
857 16 5.5229 -17.5419 -19.8229 0.00148511 -0.00120141 0.00281068 0 0 0
858 6 5.40929 -16.5969 -20.0714 0.0254664 0.00745767 -0.0251872 0 0 0
859 6 6.28881 -17.7741 -20.3858 0.00296181 0.014834 -0.0247513 0 0 0
863 16 5.82114 -18.0599 -17.1124 -0.0062691 0.000263293 -0.00926324 0 0 0
864 6 5.62557 -17.7112 -18.0066 -0.00048174 -0.00376321 -0.00898978 0 0 0
865 6 6.52779 -18.6958 -17.3554 0.0156125 -0.00577663 0.00313738 0 0 0
917 16 6.5868 -20.5044 -21.9605 0.00527656 -0.00220511 -0.00118974 0 0 0
918 6 5.73708 -20.488 -22.437 -0.0186772 -0.0094636 0.0197876 0 0 0
919 6 6.81865 -19.5535 -21.9007 -0.00320785 0.0160814 0.0435839 0 0 0
923 16 7.59839 -17.9876 -21.6894 0.00221796 0.005219 0.000127322 0 0 0
924 6 8.44992 -18.3603 -22.0047 0.0144966 0.0127213 0.00804788 0 0 0
925 6 7.74122 -17.037 -21.8745 0.00367792 0.0249494 0.0191402 0 0 0
1001 16 7.20055 -21.6674 -19.5757 -0.00489684 -0.00293284 -0.00332822 0 0 0
1002 6 7.07936 -21.263 -20.4652 0.00270595 0.0139961 0.0136324 0 0 0
1003 6 7.43514 -20.8813 -19.0312 0.0173426 -0.00640338 -0.0151516 0 0 0
1008 6 4.1867 -18.7181 -19.744 -0.0220656 0.000834058 0.00649504 0 0 0
1013 16 4.79073 -22.7398 -18.9925 -0.00248906 -0.0123362 -0.000992205 0 0 0
1014 6 4.50422 -22.0259 -18.3789 0.00783727 -0.00145479 -0.0360655 0 0 0
1015 6 5.67283 -22.3927 -19.2619 5.82945e-05 -0.0110517 -0.010237 0 0 0
1162 6 10.0397 -19.9756 -23.0957 -0.00858905 0.00379004 0.0182836 0 0 0
1163 16 10.2162 -16.1372 -17.7992 0.00168885 -0.00218095 0.000594731 0 0 0
1164 6 10.2456 -17.0992 -17.9863 -0.0237629 -0.00187349 -0.00255135 0 0 0
1165 6 9.80209 -16.1213 -16.9098 -0.00946057 -0.00262886 0.00804949 0 0 0
1651 6 17.5411 -24.3684 -17.6583 -0.0027999 0.0157031 -0.00551151 0 0 0
4012 6 11.4239 -23.4982 -8.34501 -0.0192867 -0.0107256 -0.0238214 0 1 0
1178 16 10.4676 -18.7903 -18.6654 0.0011211 0.00692077 -0.00801779 0 0 0
1195 6 10.5425 -22.0936 -18.3909 -0.0209559 -0.00651861 -0.00590536 0 0 0
1275 6 8.44002 -23.2194 -16.898 0.00857467 0.00402333 -0.0188633 0 0 0
1276 6 7.34019 -24.1519 -16.5086 0.00193688 -0.00558517 -0.0280879 0 0 0
1277 16 9.21335 -23.2142 -18.5493 0.00084032 -0.00559239 -0.00527154 0 0 0
1278 6 8.49284 -22.7602 -19.0391 0.00512124 0.0057763 -0.0138085 0 0 0
1279 6 9.19313 -24.1072 -18.9496 -0.00863066 -0.032789 -0.0144014 0 0 0
9093 6 7.28054 -21.0801 -23.9374 0.00911129 0.0108555 -0.0197185 0 0 1
799 6 12.2769 -23.8328 -23.393 0.0076901 -0.00790476 -0.0220615 0 0 0
941 16 11.7811 -18.1516 -21.0418 0.00285643 0.000455798 0.00377437 0 0 0
942 6 11.0848 -18.4518 -21.6679 -0.0102869 -0.00146216 0.00701527 0 0 0
943 6 11.9343 -17.2471 -21.4018 -0.0207063 0.0115511 -0.0136445 0 0 0
1160 16 9.90072 -19.0339 -22.8707 0.00051599 0.00136785 -0.00537642 0 0 0
1161 6 10.0205 -18.6556 -23.7652 -0.0212004 0.00936815 -0.00675024 0 0 0
1176 6 11.5373 -21.6725 -24.0919 -0.0113816 -0.0135539 -0.00954018 0 0 0
1179 6 10.8639 -19.6662 -18.4695 -0.0166675 0.00758163 -0.0311793 0 0 0
1180 6 10.9314 -18.559 -19.4937 -0.0154395 0.000849975 -0.00273722 0 0 0
1193 16 11.2777 -21.4528 -18.2659 0.00011189 0.00198769 0.0013689 0 0 0
1194 6 11.4103 -21.525 -17.2991 0.00604771 0.0413697 0.0014795 0 0 0
1205 16 13.1316 -22.2699 -23.5608 0.00605739 -0.00291935 0.00758398 0 0 0
1206 6 13.962 -22.0981 -24.0568 0.00594917 -0.0188974 0.0104444 0 0 0
1207 6 13.2563 -21.657 -22.8061 -0.0296583 0.0052764 0.0163403 0 0 0
1262 16 11.7282 -21.3208 -15.5138 0.00621198 0.000628802 -0.00395831 0 0 0
1263 6 12.2515 -21.3247 -14.696 -0.00721706 0.00812353 0.012972 0 0 0
1264 6 12.2012 -20.5909 -15.9796 0.0219276 -0.00863088 0.00919085 0 0 0
1316 16 13.8035 -17.9711 -18.9853 0.00611493 -0.00654162 0.00293473 0 0 0
1317 6 13.5561 -17.0371 -18.8102 0.00159268 0.0192727 0.00588637 0 0 0
1318 6 13.2184 -18.1532 -19.7416 -0.0196442 -0.00061473 0.0206569 0 0 0
1330 6 15.8788 -17.7845 -16.6032 -0.0354875 0.0125804 0.0106153 0 0 0
1424 16 13.3924 -19.5411 -16.6449 0.00305812 0.00149519 -0.00480593 0 0 0
1426 6 13.583 -18.9731 -17.4138 0.0205728 -0.000951221 -0.00906666 0 0 0
1427 16 13.4106 -20.3445 -21.61 -0.00419285 -0.000947009 0.00113248 0 0 0
1428 6 13.9115 -19.8036 -22.2682 0.0305989 0.0039942 0.00766836 0 0 0
1429 6 12.7828 -19.6583 -21.3159 -0.0217578 -0.0221989 0.00585565 0 0 0
1433 16 16.3382 -18.6361 -18.1129 0.00917234 -0.00129762 0.00675375 0 0 0
1434 6 15.495 -18.477 -18.5936 -0.000405207 0.00310371 0.0200896 0 0 0
1435 6 16.5455 -19.56 -18.354 -0.00226129 -0.0295929 0.0165608 0 0 0
1449 6 17.0072 -21.9757 -18.1005 -0.0164759 -0.00759298 0.0221564 0 0 0
1523 16 14.2792 -18.6283 -23.4823 -0.000327576 0.00518979 -0.00431339 0 0 0
1524 6 14.5863 -17.7103 -23.3452 -0.0160503 -0.00335434 -0.0176075 0 0 0
1525 6 13.8748 -18.5548 -24.3671 -0.00757406 0.00808382 -0.0182501 0 0 0
1613 16 13.3001 -22.4701 -19.8708 -0.00445169 -0.00483654 -0.00121773 0 0 0
1614 6 12.6625 -22.0759 -19.2363 -0.0189542 0.0261862 0.00654682 0 0 0
1615 6 13.416 -21.7132 -20.4857 0.00854523 -0.00654152 -0.00392554 0 0 0
1649 16 16.7855 -23.7472 -17.5699 -0.00378758 -0.0025578 -0.00438388 0 0 0
1650 6 16.1957 -24.0792 -18.2796 -0.000771711 0.0123892 0.0072855 0 0 0
3309 6 21.734 -4.37066 -14.7166 0.0129663 -0.0211661 0.0108967 0 0 0
1652 16 15.3743 -24.2939 -19.8707 -0.00229111 -0.000802852 -0.00217933 0 0 0
1653 6 15.9285 -23.9752 -20.6137 -0.00220264 -0.000125336 0.0036066 0 0 0
1654 6 14.649 -23.6322 -19.8642 0.000267393 -0.000762338 -0.0279497 0 0 0
1661 16 17.2609 -23.6313 -21.7937 -0.00103794 0.00781919 -0.00293209 0 0 0
1662 6 17.3358 -23.6555 -22.7566 -0.00815151 0.0150937 -0.0147661 0 0 0
3993 6 12.6002 -24.0955 -20.1834 -0.0396149 0.0177561 0.0260254 0 1 0
570 6 -24.2389 -21.2548 -20.7274 0.0115144 -0.0138483 0.00479927 0 0 0
1326 6 19.0797 -18.971 -17.1884 0.0468958 -0.00896035 0.00745267 0 0 0
1327 6 18.5355 -20.3723 -17.1383 0.013208 -0.00186515 0.0110766 0 0 0
1333 6 19.8017 -16.5261 -17.0412 -0.0422488 -0.00203449 0.00458653 0 0 0
1355 16 24.3705 -15.7545 -23.0885 0.00793346 -0.00397156 -0.00439855 0 0 0
1357 6 -23.6788 -15.6831 -23.315 0.0120541 0.0183914 0.0133099 1 0 0
1406 16 24.1245 -19.5934 -21.2102 -0.000825195 0.00300833 -0.00303427 0 0 0
1407 6 23.637 -19.3438 -20.3952 -0.00413434 -0.0137426 -0.00782307 0 0 0
1408 6 23.4732 -19.4085 -21.8987 0.00537722 0.00734883 0.00328559 0 0 0
1412 16 18.8708 -17.5559 -18.1942 0.00469661 -0.000172099 0.00369671 0 0 0
1413 6 17.9051 -17.729 -18.2094 0.0172673 0.0265997 0.00736747 0 0 0
1414 6 19.0832 -17.657 -19.1463 -0.0195357 0.00922264 0.0241903 0 0 0
1421 16 18.1112 -20.7722 -23.8637 0.00058308 -0.00811586 -0.00205868 0 0 0
1422 6 18.1968 -20.8779 -22.8941 -0.011887 0.0286184 0.0153946 0 0 0
1423 6 18.4735 -19.8742 -23.9752 0.0041487 0.00121664 -0.012801 0 0 0
1430 16 21.7677 -19.6901 -16.3056 -0.00405759 -0.00241744 -0.00847673 0 0 0
1436 16 19.3128 -18.1027 -20.8638 0.00131859 -0.00129004 0.0021027 0 0 0
1437 6 19.8709 -18.885 -20.6741 -0.0188182 -0.00574929 0.020634 0 0 0
1438 6 19.2145 -18.1923 -21.8372 -0.0156046 -0.0362683 -0.0299139 0 0 0
1439 16 19.3968 -18.123 -23.6145 0.00243021 0.00503471 -0.00129855 0 0 0
1440 6 19.0281 -17.4869 -24.2543 0.00797022 -0.0041741 0.00973618 0 0 0
1441 6 20.3403 -17.8597 -23.6439 0.00582929 0.0276204 0.00329655 0 0 0
1448 16 17.5611 -21.2402 -18.4358 0.00219768 0.00456889 0.00208766 0 0 0
1450 6 18.4009 -21.7555 -18.5386 -0.00260702 0.00798073 0.00021303 0 0 0
1505 16 23.0518 -19.2526 -18.6957 0.00344862 -0.00609467 -0.00976346 0 0 0
1506 6 23.8914 -19.6645 -18.402 0.0300335 -0.0012074 0.0242253 0 0 0
1507 6 22.5876 -19.2094 -17.8329 -0.0423336 0.0308234 -0.00491231 0 0 0
1511 16 22.4225 -22.373 -18.9441 -0.00216722 -0.00254765 -0.000227968 0 0 0
1512 6 22.6602 -22.3406 -17.9917 -0.0190572 -0.0224913 -0.00607017 0 0 0
1513 6 23.2947 -22.4676 -19.3665 0.0150045 -0.0120616 0.000713192 0 0 0
1517 16 18.4342 -21.1992 -21.1504 3.22407e-05 -0.000208531 0.000394117 0 0 0
1518 6 17.9412 -21.025 -20.3284 0.0173041 0.00302594 -0.00790075 0 0 0
1519 6 19.3465 -21.0195 -20.8467 -0.00515323 -0.00247861 -0.0121747 0 0 0
1562 16 21.9359 -16.9627 -23.7435 -0.00213417 0.00172963 0.000351571 0 0 0
1564 6 22.8258 -16.6196 -23.5123 -0.0076898 0.00154815 -0.027707 0 0 0
1655 16 19.7295 -22.811 -18.6011 -0.00199975 0.00627563 -0.00415168 0 0 0
1656 6 20.7014 -22.8083 -18.7098 0.0265263 0.0170947 0.0338078 0 0 0
1657 6 19.5648 -23.7468 -18.3604 0.0138131 -0.00281043 -0.00645321 0 0 0
1663 6 17.7292 -22.7934 -21.5893 0.00715333 -0.00727661 -0.0077504 0 0 0
1664 16 20.9014 -20.2737 -20.1038 -0.00761381 0.000115672 0.00138491 0 0 0
1665 6 21.244 -21.1532 -19.8462 -0.00790022 0.0163989 -0.0154877 0 0 0
1666 6 21.5511 -19.7315 -19.6128 -0.00212547 0.00237328 -0.014771 0 0 0
52 6 -21.9446 -15.183 -17.6793 -0.0113312 -0.0154343 -0.0109423 0 0 0
98 16 -22.1253 -12.1517 -20.5175 -0.00245249 -0.00545047 0.00559137 0 0 0
99 6 -22.8233 -11.6436 -20.9783 0.00479819 0.00843512 -0.014022 0 0 0
100 6 -21.8008 -11.4671 -19.892 -0.0120559 -0.0106213 0.0235466 0 0 0
134 16 -17.857 -13.8115 -18.6743 0.00474691 0.00198984 -0.000709233 0 0 0
135 6 -17.9762 -14.3211 -19.5026 0.00750234 0.0208687 -0.0024399 0 0 0
136 6 -17.6379 -14.5248 -18.0361 0.00744353 0.0120778 -0.0201754 0 0 0
164 16 -18.2521 -15.1077 -21.0847 0.0010967 0.00263398 -0.0047405 0 0 0
165 6 -19.1216 -14.7656 -21.3873 -0.00946658 -0.0179527 -0.00972817 0 0 0
166 6 -18.4345 -16.057 -20.9249 -0.00697953 0.00940974 -0.00949455 0 0 0
187 6 -20.5128 -8.60094 -18.1818 -0.0209398 -0.0218977 -0.0175395 0 0 0
317 16 -16.9081 -10.1282 -17.9441 0.00254814 0.00184266 0.00339137 0 0 0
318 6 -16.9061 -9.20867 -18.2927 0.0172277 -0.00939421 0.0255316 0 0 0
319 6 -17.8521 -10.2714 -17.8055 0.00768264 0.0187638 0.00192618 0 0 0
320 16 -22.0272 -15.2061 -23.7066 -0.00600721 -0.00236829 -0.00157568 0 0 0
321 6 -21.425 -14.763 -23.0678 0.0156949 -0.02572 -0.00369795 0 0 0
322 6 -22.1204 -14.4961 -24.3768 -0.0284972 0.0122851 -0.0058666 0 0 0
325 6 -16.95 -12.5527 -19.5701 -0.0113001 0.00711032 0.0245951 0 0 0
359 16 -20.4579 -13.7317 -22.0174 0.00352267 0.000101343 0.00343217 0 0 0
360 6 -21.0036 -13.2333 -21.3695 -0.0033714 0.0302355 -0.0276148 0 0 0
361 6 -20.0695 -12.9841 -22.522 -0.00253031 -0.0109722 0.00144397 0 0 0
392 16 -19.4655 -11.578 -23.4351 -0.00466561 0.00312588 0.00191925 0 0 0
393 6 -18.7337 -11.1225 -22.9587 0.0313234 -0.00904306 -0.00461889 0 0 0
394 6 -18.9713 -11.8745 -24.2225 -0.00646236 -0.0039475 0.0213988 0 0 0
404 16 -21.6945 -9.75787 -19.151 -0.00229791 0.00159854 -0.00304847 0 0 0
405 6 -22.4149 -9.72963 -18.4781 0.00615225 -0.00319035 -0.00269042 0 0 0
406 6 -22.0269 -9.06405 -19.7553 0.0111403 0.00496544 0.0113776 0 0 0
630 6 -21.769 -23.9523 -21.5215 0.00201448 -0.00803852 0.0180366 0 0 0
426 6 -17.2208 -13.1774 -24.462 0.00171029 0.000968131 0.00114631 0 0 0
440 16 -16.6412 -14.2045 -23.1403 0.00700325 -0.00487379 -0.00686551 0 0 0
441 6 -17.1715 -14.5271 -22.3788 0.021022 0.00253008 0.0143433 0 0 0
491 16 -21.6749 -9.86088 -23.2302 -0.000300428 0.00280986 -0.00634489 0 0 0
492 6 -20.9016 -10.4637 -23.2959 -0.0103163 -0.0130243 0.00855309 0 0 0
493 6 -22.2982 -10.3876 -22.7041 -0.0206036 0.0168335 -0.000302165 0 0 0
1354 6 -23.271 -13.5834 -20.6315 -0.0218574 0.00773629 0.00497252 1 0 0
32 16 -11.8557 -14.1207 -18.2707 -0.00465198 -0.00628259 -0.00105085 0 0 0
33 6 -12.0403 -13.1574 -18.3242 0.0152103 0.0314572 -0.00088651 0 0 0
34 6 -12.4606 -14.4491 -18.9603 -0.00947256 -0.0256501 0.000403687 0 0 0
83 16 -12.4574 -11.5272 -18.9958 0.00121747 0.00142913 -0.00652321 0 0 0
84 6 -12.4083 -11.3347 -19.9449 0.0318002 -0.00276119 -0.0126401 0 0 0
85 6 -12.7191 -10.6551 -18.6403 0.0308701 0.00648158 0.012283 0 0 0
110 16 -10.2065 -8.33233 -18.524 -0.00982698 -0.000994564 0.00320704 0 0 0
111 6 -9.58654 -9.09573 -18.4911 -0.0256351 0.0019803 -0.00445632 0 0 0
119 16 -13.0899 -14.9345 -20.6445 0.000442944 0.0063045 0.000277208 0 0 0
120 6 -13.6157 -14.2076 -21.0435 0.050783 0.00990608 -0.0245064 0 0 0
121 6 -12.2966 -14.9483 -21.2159 0.00530794 0.0155127 0.0233349 0 0 0
123 6 -12.7517 -15.7123 -24.5646 0.00493729 0.0188748 -0.000588168 0 0 0
129 6 -10.2915 -14.6635 -18.8724 0.0103923 -0.00316214 -0.00255731 0 0 0
149 16 -10.6307 -15.426 -21.8911 0.00647345 -0.00701691 0.00273735 0 0 0
150 6 -10.1648 -15.2465 -21.0432 -0.0125172 -0.0157365 0.00496203 0 0 0
151 6 -9.97929 -15.071 -22.533 0.00219091 -0.00815152 0.0238188 0 0 0
155 16 -12.8894 -8.81693 -18.3948 0.00505362 -0.00269941 -0.00248072 0 0 0
156 6 -11.9264 -8.64428 -18.4745 0.0173337 0.00459692 0.00656781 0 0 0
157 6 -13.2594 -8.10696 -18.954 0.0165355 -0.00761975 0.00185037 0 0 0
275 16 -14.6047 -12.9197 -21.7579 -0.00237306 0.00630244 -0.00229864 0 0 0
276 6 -15.2683 -13.3067 -22.3678 0.0226234 -0.0160574 0.00329775 0 0 0
277 6 -15.2063 -12.5072 -21.0974 -8.62502e-05 -0.0349757 -0.00206339 0 0 0
293 16 -12.559 -11.0969 -21.8465 0.00539193 0.00493258 -0.00191142 0 0 0
294 6 -13.1537 -10.308 -21.7807 -0.000980858 -0.00214928 0.018868 0 0 0
295 6 -13.2382 -11.8088 -21.8695 0.00321138 0.00827529 -0.0297325 0 0 0
323 16 -16.4513 -11.8461 -20.0339 0.0030446 -0.00489304 0.000874954 0 0 0
324 6 -16.3779 -11.2026 -19.2978 -0.00512264 -0.0132379 -0.0236913 0 0 0
337 6 -10.7664 -11.001 -22.068 0.00643428 0.001894 -0.00246363 0 0 0
666 6 -8.78939 -8.45475 -8.25716 0.0099608 -0.00107138 -0.00764378 0 0 0
2213 16 -6.19999 -3.21621 -8.38127 0.00547018 0.000209681 0.000566471 0 0 0
355 6 -16.487 -10.016 -23.8642 -0.00728011 -0.0202143 -0.0142293 0 0 0
356 16 -17.2639 -10.4613 -22.3001 -0.0015598 0.00132777 0.00405901 0 0 0
357 6 -16.953 -10.9576 -21.5125 0.0126673 0.0387585 -0.00614316 0 0 0
358 6 -17.1579 -9.5337 -21.9909 0.00909667 -0.00366161 -0.0401076 0 0 0
368 16 -14.2364 -8.99672 -21.8497 -0.000139542 -0.000741872 0.0030296 0 0 0
369 6 -15.157 -8.72275 -21.6668 -0.00607781 -0.0270466 -0.00762521 0 0 0
370 6 -13.8836 -8.15197 -22.1829 0.0094871 0.004727 -0.0155776 0 0 0
4121 16 20.8306 -23.4483 -11.3639 -0.00144368 -0.00281172 -0.00270379 0 1 0
176 16 -5.92777 -9.65948 -8.17474 0.006701 0.000477038 0.00140264 0 0 0
2764 6 2.63611 -0.963302 -8.1714 0.0118331 -0.0103038 0.00383034 0 0 0
432 6 -12.3726 -10.6735 -23.672 -0.0244713 0.0327906 -0.00553315 0 0 0
442 6 -16.5448 -15.0178 -23.6763 0.00565316 0.0246805 -0.0194731 0 0 0
113 16 -8.47485 -10.4514 -18.4717 0.00162413 0.00245454 0.00337413 0 0 0
114 6 -8.67412 -11.2539 -18.9935 -0.0205536 -0.00903147 0.018275 0 0 0
115 6 -8.56861 -10.7849 -17.546 0.00143136 -0.0291949 -0.00511504 0 0 0
128 16 -9.51349 -14.8878 -19.4357 -0.00737943 -0.00726702 0.000398792 0 0 0
130 6 -8.98206 -15.4263 -18.8108 0.0290126 -0.00330497 0.0113395 0 0 0
167 16 -6.18542 -10.2851 -22.5393 0.00216544 -0.00555509 -0.00277219 0 0 0
168 6 -6.14513 -9.31671 -22.7014 0.0147554 -0.00735035 -0.0191166 0 0 0
169 6 -5.26792 -10.5588 -22.7507 -0.0069002 0.00912187 0.000628836 0 0 0
209 16 -8.70235 -14.4937 -23.6651 -0.000867977 -0.0043891 -0.00107474 0 0 0
3095 16 19.6386 -0.552571 -20.246 -0.0023012 -0.000724728 -0.00661811 0 0 0
211 6 -8.36505 -13.58 -23.7505 0.00472222 -0.0128252 -0.00962686 0 0 0
311 16 -6.31128 -9.50578 -19.847 -0.00244532 0.000589855 0.000953575 0 0 0
312 6 -7.05122 -9.89623 -19.3289 -0.00190075 0.00227591 -0.0126197 0 0 0
313 6 -6.42995 -9.93461 -20.7177 0.0151805 0.00585609 0.00520903 0 0 0
335 16 -9.82163 -10.9381 -22.3235 0.00608482 -0.000275582 0.00100805 0 0 0
336 6 -9.39861 -11.3929 -21.5617 -0.0197444 0.00132558 -0.0132287 0 0 0
347 16 -8.5795 -12.4904 -20.3689 -0.0024261 0.000115267 0.00183191 0 0 0
348 6 -8.99232 -13.3186 -20.0425 -0.0044986 -0.00521456 -0.00367899 0 0 0
349 6 -7.64658 -12.7886 -20.4281 -0.0115172 0.0109439 0.00760511 0 0 0
419 16 -10.009 -8.72215 -24.1129 0.00336685 -0.00942079 0.00216371 0 0 0
420 6 -9.70733 -9.37945 -23.4574 -0.022527 0.0112837 -0.00361329 0 0 0
506 16 -6.06678 -13.6374 -20.3371 0.000793872 3.36183e-05 0.00187142 0 0 0