ITEM: TIMESTEP
25000
ITEM: NUMBER OF ATOMS
11135
ITEM: BOX BOUNDS pp pp pp
-2.4500000000000000e+01 2.4500000000000000e+01
-2.4500000000000000e+01 2.4500000000000000e+01
-2.4500000000000000e+01 2.4500000000000000e+01
ITEM: ATOMS id type x y z vx vy vz ix iy iz
441 6 -19.3777 -21.793 -16.927 0.0225283 -0.0291871 -0.0239766 0 0 0
1647 6 -21.0243 -23.8298 -23.4335 -0.0230703 0.0267511 -0.0158277 1 0 0
8583 6 -19.4738 -23.371 -21.8663 -0.00767413 0.00640182 0.014798 0 0 1
8582 16 -19.788 -24.3531 -21.9593 -0.00551949 -0.00421492 0.00653944 0 0 1
121 6 -20.5054 -19.498 -16.3896 0.00267887 0.0204821 0.0137109 0 0 0
215 16 -18.2979 -23.3406 -16.5524 0.00112062 -0.00886294 0.00476192 0 0 0
217 6 -18.9839 -23.967 -16.7663 0.0180939 0.00480056 0.0260898 0 0 0
3629 16 -22.93 -23.42 -17.4233 0.00230845 -0.00434637 -0.00368195 0 1 0
3631 6 -22.8504 -22.4346 -17.5115 0.00458559 0.000229483 0.0119108 0 1 0
292 6 -21.3489 -20.9233 -17.8723 0.0155758 -0.00882467 -0.0108063 0 0 0
290 16 -22.2126 -20.7524 -18.3233 -0.0011877 -0.00119343 -0.00251388 0 0 0
3630 6 -22.0911 -23.7359 -17.818 -0.00490359 -0.00524166 -0.00657446 0 1 0
1407 6 -18.9357 -20.3669 -23.1247 -0.0165891 -0.00436613 -0.0162527 1 0 0
440 16 -19.8676 -20.9914 -17.1135 -0.00315593 0.00305692 0.00858 0 0 0
322 6 -23.9876 -18.6851 -22.4586 0.0110928 -0.00763602 0.0094765 0 0 0
291 6 -22.233 -19.7624 -18.4824 -0.00905848 -0.0262585 -0.0107443 0 0 0
120 6 -19.7899 -18.0986 -16.4238 0.0193969 -0.0332001 0.00268247 0 0 0
1406 16 -18.7856 -19.6161 -23.6879 -0.00366116 0.00460897 0.00351499 1 0 0
1563 6 -20.1175 -18.35 -23.3267 -0.000711705 0.0100662 0.0041679 1 0 0
1564 6 -21.3165 -17.904 -24.1998 0.0262002 0.000657661 0.000155568 1 0 0
361 6 -22.3071 -17.1356 -18.8013 0.00546549 0.0261356 -0.00213352 0 0 0
359 16 -21.917 -18.0195 -18.6262 0.000474704 -0.00405282 -0.00449059 0 0 0
1157 16 -24.0328 -18.6715 -20.4945 0.00143444 0.000642033 -3.9008e-05 1 0 0
1158 6 -23.1503 -18.8751 -20.0561 -0.00339286 -0.0267419 0.0310132 1 0 0
321 6 -23.0166 -17.9287 -23.2076 0.000962759 -0.0197759 0.0427815 0 0 0
8647 6 -20.9963 -16.6997 -21.8887 -0.0208669 -0.00807468 -0.00402554 0 0 1
47 16 -18.9144 -16.7563 -16.9662 0.000989477 -0.00155763 0.00300109 0 0 0
360 6 -21.449 -17.9181 -17.7977 0.024143 0.00186968 -0.00120199 0 0 0
1562 16 -21.0137 -17.9992 -23.2482 -0.00151004 -0.000231059 0.000619686 1 0 0
320 16 -23.9383 -18.0528 -23.2196 0.00385533 -0.00151453 0.00467993 0 0 0
442 6 -19.13 -20.5354 -17.5718 0.00599947 -0.00952197 -0.0112457 0 0 0
8644 6 -18.2989 -21.6406 -21.0177 0.0277079 -0.0162932 -0.0116193 0 0 1
8642 16 -19.0741 -21.662 -21.4982 -0.00502359 0.00203446 0.00172092 0 0 1
216 6 -17.5237 -23.6494 -17.0964 -0.0124314 0.00840944 0.0170705 0 0 0
289 6 -17.5511 -19.6848 -19.082 0.00911947 0.00404587 0.0201866 0 0 0
8643 6 -19.6728 -21.6044 -20.7718 -0.0105496 -0.0127758 -0.00579753 0 0 1
287 16 -17.7704 -19.8066 -18.13 0.000318708 0.00286212 0.0016175 0 0 0
1652 16 -24.4345 -16.5362 -16.9978 -0.0020467 0.00404996 -0.000269193 1 0 0
1408 6 -17.8565 -19.369 -23.4104 0.0179775 0.00108799 0.0184006 1 0 0
8958 6 -18.1046 -22.823 -23.2691 0.00761821 0.0148135 0.0026626 0 0 1
1646 16 -21.6839 -23.9136 -24.2077 0.0026913 0.00647211 -0.00198429 1 0 0
8957 16 -17.9396 -22.8749 -24.2116 -0.0038616 -0.00265073 0.00106908 0 0 1
1648 6 -21.7831 -22.9671 -24.4865 -0.0164843 0.0110501 0.018731 1 0 0
219 6 -17.4796 -16.8977 -18.3053 -0.00163671 0.0153684 0.00358096 0 0 0
218 16 -16.6787 -16.8558 -18.8989 0.00152855 0.0062937 -0.000868348 0 0 0
8614 6 -13.3193 -23.8764 -23.3516 0.00739776 0.00981615 -0.00188926 0 0 1
8612 16 -13.409 -23.5429 -22.4838 0.0044523 0.00618961 0.0013195 0 0 1
1550 16 -16.2414 -22.9867 -21.6046 -0.00384041 -0.00147701 -0.00288617 1 0 0
1552 6 -15.4213 -23.1175 -22.0841 0.00125857 0.0105499 -0.0166654 1 0 0
235 6 -13.3302 -17.9669 -16.6186 -0.0158225 0.00268265 0.00123376 0 0 0
233 16 -12.8135 -17.2712 -17.0661 0.000679286 -0.00261431 -0.0020631 0 0 0
74 16 -14.4104 -21.5102 -18.4773 -0.00395281 0.00412181 -0.00299661 0 0 0
76 6 -13.7824 -20.7709 -18.3787 -0.0274875 -0.000158259 -0.0052146 0 0 0
536 16 -12.6584 -19.3541 -18.7604 -0.000942464 0.00506033 0.00378119 0 0 0
538 6 -12.6242 -18.5877 -18.224 -0.00229475 0.018866 0.00206374 0 0 0
8605 6 -16.0438 -20.3042 -20.7804 0.00511442 0.0176746 -0.0173548 0 0 1
8604 6 -16.6488 -19.1569 -21.4408 -0.00422307 0.0410873 -0.0151374 0 0 1
8603 16 -16.8425 -19.7251 -20.7096 -0.0023541 -0.00376614 0.00178593 0 0 1
3405 6 -11.0847 -20.4935 -19.7695 0.00339422 -0.00414732 0.029328 0 1 0
75 6 -14.4235 -21.5124 -19.4199 0.00798927 0.00348607 0.0050406 0 0 0
537 6 -13.0097 -18.9631 -19.5585 -0.0140808 0.0116652 0.0160689 0 0 0
521 16 -13.9588 -20.7241 -21.1453 -0.00313534 0.00621068 -0.00515244 0 0 0
523 6 -13.7859 -21.6775 -21.3723 -0.00620563 0.0313887 0.0155282 0 0 0
522 6 -13.8586 -20.4087 -22.0811 -0.00180316 -0.0317371 -0.0101371 0 0 0
288 6 -17.0847 -19.1711 -17.7649 0.0024169 0.0115007 0.0177284 0 0 0
619 6 -15.3979 -23.2285 -17.9716 0.00101031 0.0209289 0.0149424 0 0 0
380 16 -16.2126 -18.7707 -23.1822 0.00468753 0.00282156 -0.00369723 0 0 0
617 16 -16.0514 -23.8236 -17.6562 -0.000695682 -0.00169832 -0.00373559 0 0 0
3628 6 -15.2217 -21.3051 -16.6389 0.00147242 0.00888363 -0.011215 0 1 0
554 16 -11.3021 -16.5599 -21.6506 0.00466473 0.000930142 0.00167552 0 0 0
556 6 -12.2745 -16.4555 -21.4714 -0.0180202 0.00635206 -0.00874448 0 0 0
357 6 -16.7569 -16.6943 -20.69 0.00386376 0.00457355 0.00760744 0 0 0
356 16 -16.7611 -16.5157 -21.6307 -0.00167539 -0.0051679 0.0046084 0 0 0
382 6 -16.523 -17.8744 -22.9596 -0.00416331 0.0185254 0.012718 0 0 0
381 6 -15.2753 -18.6094 -23.3459 0.0156157 0.00435074 0.0170503 0 0 0
555 6 -10.8555 -16.7466 -20.7768 -0.0304711 0.0153798 0.00377372 0 0 0
8910 6 -10.9006 -22.7423 -22.6984 -0.0446687 0.0166377 -0.0039581 0 0 1
8959 6 -17.1668 -22.292 -24.2719 0.0116684 0.0130533 0.00480537 0 0 1
8899 6 -15.0572 -16.4761 -21.1635 0.0161365 0.0075569 0.0162177 0 0 1
8727 6 -15.8008 -20.3106 -24.1434 -0.0205682 0.00444506 -0.0064282 0 0 1
8620 6 -12.4221 -18.4971 -23.6249 -0.00375726 0.0137861 0.0107016 0 0 1
8618 16 -13.3389 -18.8319 -23.8263 -0.00412213 0.000536206 0.00518274 0 0 1
1551 6 -16.1208 -23.7268 -20.941 0.00717294 -0.00346241 -0.028865 1 0 0
8613 6 -12.7968 -24.1843 -21.9974 0.000295765 0.0185541 0.00318084 0 0 1
8574 6 -8.69547 -17.3367 -21.2737 -0.00250117 0.00833881 -0.00244948 0 0 1
8573 16 -8.00466 -17.1844 -21.9281 0.00173973 0.00176179 -0.00843594 0 0 1
3404 16 -10.2423 -20.2844 -20.0829 0.00557592 -0.00157486 -0.000992291 0 1 0
3406 6 -10.1244 -20.8958 -20.8186 0.00914816 0.0282 -0.0247077 0 1 0
9286 6 -7.76552 -18.9039 -22.2283 -0.0185967 0.00379179 0.00445265 0 0 1
3518 16 -9.53918 -17.7305 -19.583 -0.000707714 0.00447572 -0.00149927 0 1 0
9262 6 -8.27372 -19.3737 -17.3954 0.0149381 -0.00225276 0.013458 0 0 1
9260 16 -7.71478 -20.0041 -17.8018 -0.00317665 0.00237946 -0.0019918 0 0 1
9261 6 -8.34237 -20.3525 -18.5165 0.0214542 0.00637492 0.000837118 0 0 1
3519 6 -9.77469 -18.7026 -19.7725 0.0254588 -0.00814511 0.00401956 0 1 0
3520 6 -9.50891 -17.8285 -18.5983 0.0113992 0.00298828 0.0161593 0 1 0
539 16 -5.35444 -16.7888 -17.7603 -0.000491283 -0.0104516 -0.00105478 0 0 0
541 6 -5.96641 -16.6765 -17.0013 0.0188009 0.012223 0.00120945 0 0 0
9284 16 -7.68629 -19.8553 -22.2505 0.00208613 0.00223366 -0.0011399 0 0 1
9285 6 -7.05325 -19.9829 -21.5243 -0.0310284 -0.021321 0.00843644 0 0 1
1039 6 -7.86897 -23.2353 -20.9652 -0.00597238 -0.00392641 0.00520036 0 0 0
1037 16 -7.33421 -23.8446 -20.5859 0.000943477 -0.000736863 0.00148774 0 0 0
1038 6 -6.58145 -23.2603 -20.2064 -0.00928879 0.00889564 -0.000506389 0 0 0
567 6 -7.45101 -23.8845 -17.0079 0.0176591 -0.0298908 -0.0207748 0 0 0
640 6 -4.95084 -23.9703 -21.907 0.0152558 -0.00263235 0.00676991 0 0 0
9065 16 -6.21495 -20.8741 -24.2961 0.00252401 0.00330011 -0.00105642 0 0 1
9066 6 -6.703 -20.461 -23.5355 -0.0134089 -0.0173173 0.0247386 0 0 1
9023 16 -3.90711 -22.0379 -22.2458 0.00297383 -0.00194317 -0.000123105 0 0 1
8909 16 -10.3137 -22.1077 -22.3629 0.000311865 -0.00254681 -0.00639806 0 0 1
8911 6 -9.6187 -22.3423 -23.0215 -0.0144885 0.00516617 0.0060937 0 0 1
9067 6 -5.46895 -21.2193 -23.8143 -0.00367146 -0.00336513 -0.00283563 0 0 1
1208 16 -5.96255 -18.821 -20.2439 -0.00138365 0.00226904 0.00283306 0 0 0
1210 6 -6.06767 -18.0849 -20.8411 0.0134137 -0.0217202 0.00653656 0 0 0
3934 6 -3.66299 -23.8913 -18.8886 0.00249028 0.0104589 0.00118376 0 1 0
3616 6 -4.64655 -21.43 -19.4767 -0.0187416 0.00439526 -0.00305863 0 1 0
9024 6 -3.99875 -21.1471 -21.9328 -0.00320385 -0.0242407 -0.00410394 0 0 1
9263 16 -3.93123 -19.4103 -21.8073 -0.00478444 -0.00625903 0.00510669 0 0 1
9265 6 -4.64587 -19.0621 -21.2377 0.0151419 0.00981801 0.015583 0 0 1
1209 6 -5.98897 -18.379 -19.3284 -0.0238165 -0.0101324 -0.00984484 0 0 0
8962 6 -5.58907 -16.6922 -22.3449 -0.00169243 -0.000452932 -0.0353902 0 0 1
8575 6 -8.36257 -16.3888 -22.4054 0.0141858 0.0177398 -0.000885042 0 0 1
161 16 -8.56251 -22.5746 -24.36 0.00545929 0.0082745 -0.0019086 0 0 0
379 6 -9.62803 -17.2582 -16.3578 -0.0106357 -0.0157499 0.00851444 0 0 0
377 16 -9.42772 -18.1625 -16.6865 0.00624709 -0.00520133 0.0047229 0 0 0
3507 6 -6.98003 -21.4252 -17.3722 0.00770732 -0.00942405 0.00120488 0 1 0
3614 16 -5.24245 -22.1965 -19.5511 -0.00880309 -0.00160893 -0.00586496 0 1 0
3615 6 -5.42597 -22.4075 -18.6017 0.00128531 -0.0133611 0.0151775 0 1 0
3506 16 -6.46569 -22.2308 -17.081 -0.000324835 0.00106788 -0.0105312 0 1 0
3508 6 -5.86433 -21.7811 -16.4634 0.0156538 -0.00747724 0.00412726 0 1 0
8722 6 -10.0157 -20.1751 -23.9261 0.00745409 -0.00811066 0.0026472 0 0 1
4476 6 -3.64257 -22.7962 -24.3404 -0.0203049 0.0387229 -0.00725153 0 0 1
888 6 -2.06112 -16.3443 -18.6393 -0.00134696 -0.00448467 0.00407671 0 0 0
887 16 -1.71789 -16.541 -17.7378 0.00040743 -0.0020301 -0.00171131 0 0 0
8853 6 -0.591607 -17.8967 -24.1723 0.00265885 -0.0030634 -0.00141274 0 0 1
3418 6 -3.255 -18.6218 -18.3893 0.0331581 -0.00761614 0.00922226 0 1 0
10946 16 -1.01335 -22.3775 -22.2173 0.00674265 -0.0034134 -0.0061479 0 1 1
9025 6 -2.96452 -22.1824 -22.081 -0.0182625 0.00484434 0.00886209 0 0 1
908 16 1.30235 -23.3014 -16.9694 -0.00562272 -0.00222671 0.00155705 0 0 0
8992 6 0.0797327 -20.3869 -18.8317 0.00670814 -0.00840174 -0.0334065 0 0 1
8991 6 -0.96599 -20.6996 -19.9409 0.0161059 0.00418435 0.0258951 0 0 1
8990 16 -0.75425 -20.8807 -18.9893 0.00351915 -0.00304015 0.00189335 0 0 1
9099 6 0.594588 -19.4672 -21.167 -0.00402017 -0.0128511 -0.0226261 0 0 1
702 6 2.13857 -19.1118 -18.835 0.0144305 -0.00683184 -0.00125624 0 0 0
9100 6 -0.558533 -19.2265 -22.2172 0.0237349 -0.00975684 0.00189517 0 0 1
9098 16 -0.347468 -19.1854 -21.2306 0.00204822 -0.00571206 -0.000855493 0 0 1
1076 16 3.46431 -17.2652 -18.2081 0.00170892 0.000102161 0.000460462 0 0 0
870 6 0.0915131 -17.2857 -20.874 0.0233566 0.0234569 -0.0191711 0 0 0
701 16 1.56584 -19.5582 -18.2068 -0.0029774 0.00573226 0.00378432 0 0 0
703 6 1.29133 -18.7816 -17.7224 0.00712953 -0.0124517 -0.00316689 0 0 0
9083 16 2.77071 -18.648 -23.2794 -0.00200548 -0.00540357 0.002516 0 0 1
9084 6 2.41081 -17.8168 -23.034 -0.0232917 0.000883311 0.00334152 0 0 1
869 16 -0.0554176 -16.3562 -21.1719 -0.00375185 -0.0031487 -0.000267846 0 0 0
3773 16 3.05915 -22.1383 -18.916 -8.55553e-05 -0.0106042 -0.00203679 0 1 0
3774 6 2.44013 -22.652 -18.3458 0.00287741 0.00233935 0.0125679 0 1 0
3618 6 -0.382983 -22.8104 -19.6156 0.0156993 -0.017961 0.00216907 0 1 0
745 6 -1.51639 -21.8454 -17.5372 -0.0128938 -0.00625768 -0.0119041 0 0 0
9241 6 2.57217 -23.0468 -20.8335 -0.020559 -0.0010916 0.018408 0 0 1
3775 6 2.63809 -21.244 -18.912 -0.0101942 0.0141779 0.00550161 0 1 0
3617 16 0.209959 -23.6195 -19.4153 -0.00478044 0.00063527 0.00410596 0 1 0
9264 6 -3.20878 -18.7776 -21.7108 0.0047638 -0.00254494 -0.00771762 0 0 1
9314 16 2.15493 -20.2625 -21.2329 0.0020857 -0.00409085 0.00380226 0 0 1
10947 6 -0.403314 -22.0736 -22.903 0.0170091 0.00228596 0.00923974 0 1 1
9239 16 3.07061 -22.9666 -21.6443 -0.00302858 0.00559109 -0.00252093 0 0 1
3619 6 0.523662 -23.5431 -18.4597 -0.00825539 -0.0150723 -0.0288486 0 1 0
10948 6 -1.13343 -23.2708 -22.49 0.00184422 -0.00436578 -0.00137927 0 1 1
9316 6 2.79568 -20.9631 -21.543 -0.0248785 -0.0112463 0.0122019 0 0 1
1078 6 3.42121 -16.9697 -17.2835 0.0180666 -0.00374118 -0.00295298 0 0 0
9085 6 2.21671 -18.928 -24.0296 0.00366556 -0.00203448 -0.00685272 0 0 1
9315 6 2.49913 -19.5202 -21.7772 -0.00572457 -0.0129146 0.00370931 0 0 1
3416 16 -3.20365 -19.5439 -18.2548 0.00059694 -0.004745 0.000289571 0 1 0
744 6 -2.82964 -21.8655 -16.6876 0.013779 -0.0061354 -0.0334132 0 0 0
3760 6 -0.27309 -17.3789 -17.2559 0.0257623 -0.00881377 -0.000436495 0 1 0
3417 6 -2.23694 -19.7706 -18.2957 -8.92548e-05 0.0190851 0.00191916 0 1 0
743 16 -2.03646 -22.3438 -16.827 0.00156397 0.00390819 0.000488408 0 0 0
8852 16 -0.920923 -18.7196 -23.7836 -0.00125923 0.000343269 -0.00866703 0 0 1
3759 6 0.853457 -16.6841 -16.6903 0.00516365 0.0130345 0.000953781 0 1 0
3758 16 0.544814 -17.5835 -16.692 0.00427261 0.00315391 0.00535851 0 1 0
886 6 1.75313 -24.2068 -22.6621 -0.0264936 -0.0025002 0.0130192 0 0 0
1257 6 5.06971 -21.9221 -20.0177 -0.00100304 0.0213684 0.0358331 0 0 0
3908 16 9.6995 -22.3224 -20.6907 -0.00132743 0.00181895 0.00265568 0 1 0
1077 6 4.50169 -17.2441 -18.2391 -0.00806508 -0.000716362 0.00977577 0 0 0
9010 6 5.19864 -18.8167 -20.7663 0.0118064 0.0275083 -0.0110415 0 0 1
9008 16 5.37043 -18.1133 -21.3856 2.11e-05 0.00429985 0.00213459 0 0 1
9009 6 6.17274 -17.6847 -21.1023 -0.00603481 0.0199592 0.00342519 0 0 1
1015 6 7.82826 -19.6042 -20.0387 -0.0275598 -0.0140973 -0.00803925 0 0 0
1013 16 7.21726 -19.9923 -19.3883 -0.000418371 0.0077145 0.00175991 0 0 0
1258 6 6.22129 -21.0574 -20.1613 0.028227 -0.00337647 0.00425289 0 0 0
3949 6 6.59101 -19.1066 -23.1966 0.0039514 -0.0202554 -0.0174074 0 1 0
1256 16 5.71896 -21.6838 -20.7196 0.00267242 -0.000783579 -0.00531447 0 0 0
3947 16 7.36928 -19.5833 -23.0099 0.00350522 0.00249356 0.00439837 0 1 0
1014 6 7.5313 -19.6433 -18.5603 0.0292979 0.0215561 0.0218874 0 0 0
1195 6 9.61517 -21.8468 -18.1555 -0.00668676 0.0205139 0.00884792 0 0 0
673 6 10.2006 -16.3954 -19.674 0.0138233 0.0167053 -0.0180246 0 0 0
1082 16 6.26266 -17.0119 -18.7307 -0.00589708 0.00200551 0.00160619 0 0 0
1278 6 10.2814 -23.9843 -17.6982 -0.00895618 -0.00716105 -0.0163529 0 0 0
1425 6 9.98704 -18.9296 -18.1688 -0.00387266 0.00334437 -0.0147301 0 0 0
1424 16 9.50026 -19.7484 -17.9525 0.00632345 0.0034311 -0.00333799 0 0 0
672 6 9.52091 -17.6925 -19.5602 0.00424141 0.00682665 -0.0105244 0 0 0
671 16 10.2167 -17.1666 -19.1052 -8.6955e-05 -9.80911e-05 0.00499378 0 0 0
3909 6 9.1077 -21.7403 -20.2489 0.0105282 0.0137293 -0.00208599 0 1 0
3930 6 8.10546 -24.2881 -22.5896 0.004054 -0.00978975 0.00471894 0 1 0
1083 6 6.77627 -16.7325 -19.476 0.0142601 -3.73731e-05 0.00515643 0 0 0
3948 6 7.33453 -20.3874 -23.5304 -0.000424304 -0.0259274 -0.00810607 0 1 0
1193 16 9.0445 -22.6079 -17.8555 0.000654807 0.00103413 -0.00398944 0 0 0
1194 6 8.12606 -22.2558 -17.7607 -0.0302262 0.0211831 0.0349998 0 0 0
3795 6 6.27211 -22.6913 -21.9397 0.00494864 -0.0213194 0.00105907 0 1 0
3794 16 6.55746 -23.3144 -22.6686 -0.00321799 0.00203919 -0.00540484 0 1 0
9018 6 3.89008 -16.5195 -23.4881 -0.0073075 0.00610207 0.0112899 0 0 1
3910 6 9.24213 -22.3955 -21.4814 0.0122031 -0.00403326 0.0129897 0 1 0
9304 6 9.87414 -17.6619 -23.7863 -0.00845161 0.0119952 0.0320139 0 0 1
8970 6 8.45157 -19.1194 -21.9142 0.00501243 0.0202502 -0.00465208 0 0 1
8969 16 9.11954 -19.0492 -21.2191 -0.00219354 0.000517049 -0.00176081 0 0 1
8971 6 9.92436 -19.5174 -21.4208 -0.00536398 0.0285781 -0.00579046 0 0 1
3796 6 5.75838 -23.9183 -22.6825 0.016512 0.00723181 0.00863727 0 1 0
10777 6 3.53395 -22.9443 -23.8378 0.0113885 0.00927964 -0.0161161 0 1 1
10780 6 6.87591 -22.4508 -24.2582 -0.00656666 0.00775997 0.00137965 0 1 1
9017 16 4.886 -16.417 -23.5261 -0.000839371 0.000269144 0.00300338 0 0 1
1287 6 4.99804 -22.2796 -17.0998 0.0191765 -0.00747329 0.00296963 0 0 0
1286 16 5.45916 -21.7851 -16.3993 -0.00238966 -4.55709e-05 -0.0108938 0 0 0
1426 6 9.93467 -19.9785 -17.1215 -0.0112167 0.00214996 0.0015957 0 0 0
3994 6 8.30832 -23.4054 -16.5974 0.0149073 0.00642658 -0.00263524 0 1 0
9019 6 5.17116 -16.937 -22.7309 0.0157941 0.00178759 0.00372962 0 0 1
9240 6 3.82381 -23.5487 -21.3947 0.0265141 0.00548314 0.00483512 0 0 1
9302 16 10.8353 -17.6232 -23.7156 -0.00308724 0.00314862 0.00246131 0 0 1
9303 6 11.0415 -18.4827 -23.2981 -0.0124543 0.000648138 -0.00873365 0 0 1
1649 16 16.7602 -24.3628 -18.9171 0.00077723 0.00214317 0.00225376 0 0 0
1449 6 12.8627 -21.6206 -19.2273 0.0235483 -0.00457982 0.00848419 0 0 0
1448 16 12.9311 -21.2534 -20.1128 0.0033456 -0.00163644 0.00449788 0 0 0
1450 6 13.8902 -21.3826 -20.2918 0.0311002 0.0216782 -0.0333168 0 0 0
9515 16 11.9472 -19.8784 -22.1736 -0.00636009 0.00241022 0.0101616 0 0 1
9517 6 12.5738 -20.3016 -22.778 0.00120766 0.015632 0.0204549 0 0 1
9126 6 14.1165 -17.5006 -20.5107 -0.0184842 -0.00324238 0.0143562 0 0 1
9127 6 13.5228 -18.763 -21.1348 -0.0173675 -0.0150967 0.00616423 0 0 1
9125 16 14.3512 -18.2993 -21.0051 0.00945864 -0.000396771 -0.00239799 0 0 1
1351 6 12.5656 -19.8776 -16.3717 -0.00934326 -0.00152508 0.00615363 0 0 0
1176 6 16.0724 -23.0768 -20.0223 0.0252408 0.00168147 -0.0198849 0 0 0
1349 16 11.625 -20.1401 -16.3527 -0.000364871 -0.00704363 0.0020204 0 0 0
797 16 13.582 -21.0073 -23.9462 0.0021861 0.00245819 -0.00141058 0 0 0
1175 16 15.8076 -22.2796 -20.5709 -0.00396899 -0.00536318 0.00630724 0 0 0
1177 6 16.3379 -21.5948 -20.1977 0.0124084 -0.0136276 -0.00879152 0 0 0
9478 6 16.8528 -19.0066 -19.1729 -0.0112239 0.0179011 0.00866511 0 0 1
372 6 16.34 -21.1713 -22.2181 0.0374032 0.0137239 0.0031578 -1 0 0
371 16 16.3105 -20.4678 -22.9438 0.00149452 0.00137751 -0.00834737 -1 0 0
569 16 16.4644 -17.7293 -22.5285 -0.00617201 0.000420553 0.000817651 -1 0 0
570 6 15.6746 -17.7988 -21.9485 0.0123173 0.0165666 0.017214 -1 0 0
571 6 16.643 -18.6428 -22.7198 0.00425224 -0.00512158 -0.00121846 -1 0 0
9476 16 16.7995 -19.9672 -19.3052 0.000530821 -0.00458181 0.00483765 0 0 1
9516 6 12.0067 -20.4667 -21.3538 0.00603702 0.00564419 0.0314296 0 0 1
373 6 15.3492 -20.6027 -23.087 0.0121142 -0.00327426 0.00647233 -1 0 0
1011 6 13.24 -22.8024 -16.8832 0.00557843 -0.015804 0.0118203 0 0 0
767 16 13.318 -16.5241 -19.2632 0.00411119 -0.002989 0.00427587 0 0 0
769 6 12.3732 -16.5921 -19.2227 -0.0135439 0.0214484 -0.00945437 0 0 0
1012 6 12.1819 -21.7481 -17.2471 0.0159386 0.00966842 -0.00763825 0 0 0
1010 16 12.7427 -22.4613 -17.6836 0.00318411 -0.00120704 -0.00917225 0 0 0
1435 6 16.2556 -20.7462 -17.4969 0.01872 -0.0244267 -0.0170722 0 0 0
1433 16 16.0379 -20.9826 -16.5696 -0.00154064 3.47023e-06 0.00428032 0 0 0
1519 6 16.6895 -16.6808 -18.9984 0.00114904 0.0139438 0.00555048 0 0 0
1279 6 11.7903 -24.3113 -17.8596 0.0114332 0.0184779 -0.000896604 0 0 0
1021 6 10.5833 -16.4285 -17.4719 -0.00103101 0.00822508 0.00348504 0 0 0
1614 6 15.2647 -23.4371 -22.4323 -0.0324968 -0.00872688 -0.00853558 0 0 0
799 6 13.8757 -21.9285 -24.0037 -0.00762651 -0.0132471 0.00821283 0 0 0
1261 6 11.1511 -23.3358 -20.9588 0.0127745 -0.00147501 -0.0055484 0 0 0
1259 16 12.0145 -23.5232 -21.24 0.00247724 0.00282069 -0.000842651 0 0 0
1615 6 16.3259 -24.4686 -22.4824 -0.0198446 -0.0173337 -0.000651837 0 0 0
1260 6 12.409 -22.6383 -20.9255 -0.0221721 -0.0253864 0.0136725 0 0 0
1651 6 17.208 -24.3877 -18.0615 0.0257769 0.0234206 0.0139621 0 0 0
1517 16 16.4298 -16.8633 -18.1071 0.00258237 0.000344989 0.00374806 0 0 0
1613 16 15.4137 -24.2847 -22.8829 -0.000582414 0.00518558 -0.00279543 0 0 0
250 6 23.6829 -18.1358 -17.7883 0.0175375 0.00872086 -0.00168479 -1 0 0
9367 6 23.4804 -22.9916 -17.723 -0.0140972 -0.0228206 0.00644211 0 0 1
1159 6 24.2618 -18.6852 -19.825 -0.0071865 0.00794552 0.0134634 0 0 0
240 6 22.5208 -24.4913 -22.996 -0.012246 -0.00863537 -0.00468432 -1 0 0
241 6 22.1829 -23.6259 -24.129 -0.00340295 -0.0196741 0.0144417 -1 0 0
1592 16 18.6476 -20.1541 -24.3017 0.000116085 -0.000171978 -0.00451386 0 0 0
9477 6 17.6362 -20.1979 -18.9019 -0.00584968 -0.00205413 0.0117271 0 0 1
1357 6 20.6933 -24.3643 -18.215 -0.00234341 0.0110054 0.0121601 0 0 0
9508 6 20.1238 -19.0696 -23.6345 -0.0213661 0.00205409 0.0135397 0 0 1
1356 6 21.3746 -23.1293 -17.6465 0.0148837 -0.0235447 -0.00623915 0 0 0
1428 6 21.363 -19.7572 -20.915 -0.00854951 0.0148832 0.0114991 0 0 0
249 6 22.3329 -18.7707 -17.4904 0.0033478 -0.0257204 -0.0175568 -1 0 0
248 16 22.9439 -18.5605 -18.2071 -0.00165584 0.00061035 -0.00302883 -1 0 0
1427 16 20.5615 -20.2669 -20.7409 0.00307578 -0.00544758 -0.00261498 0 0 0
1431 6 19.759 -21.2143 -19.3806 -0.0131313 0.00286924 0.0212013 0 0 0
1430 16 19.2235 -21.3086 -18.5318 0.00508001 0.00432313 0.00805781 0 0 0
1594 6 17.8428 -20.4721 -23.9084 0.00905867 0.0199805 -0.0165381 0 0 0
9366 6 23.2665 -21.5142 -17.5731 -0.00816996 0.00307491 0.0256997 0 0 1
1432 6 19.5154 -22.219 -18.181 0.0039051 -0.0132138 0.0195459 0 0 0
1656 6 20.5962 -19.8433 -17.0518 0.0211549 -0.00511497 0.0171733 0 0 0
9365 16 22.8808 -22.3645 -17.3431 -0.00132446 0.00322487 0.00215572 0 0 1
1655 16 21.0944 -19.257 -16.5128 -0.00101977 0.00917601 -0.00960412 0 0 0
9507 6 21.1429 -18.0896 -23.3765 0.0116807 0.0142106 0.0329139 0 0 1
1355 16 20.4739 -23.5194 -17.7327 -6.39681e-05 -0.00613429 0.00135376 0 0 0
9506 16 20.555 -18.672 -22.9023 0.00595794 -0.00275374 0.00257786 0 0 1
1429 6 20.0942 -20.0807 -21.5136 -0.0120633 0.00669368 0.0127008 0 0 0
4251 6 18.8587 -24.0358 -16.7666 -0.00615419 0.0052125 -0.0043432 0 1 0
1439 16 22.9475 -19.5556 -24.3814 -0.00037872 -0.00124477 -0.00141462 0 0 0
1660 6 18.227 -16.5065 -22.8294 -0.025899 0.00990658 -0.00109399 0 0 0
1002 6 19.1835 -16.5204 -19.9832 0.00160435 -0.0153624 0.0194468 0 0 0
1148 16 21.0258 -16.9205 -19.4026 0.00298582 -0.000898 -0.000793955 0 0 0
1150 6 21.8426 -16.4133 -19.2673 -0.00605111 0.0112401 -0.0011522 0 0 0
1149 6 21.3787 -17.8053 -19.3705 -0.0184855 0.000585295 -0.0163424 0 0 0
1653 6 23.6214 -16.4654 -16.5585 0.0143306 0.00786458 -0.0095253 0 0 0
1512 6 21.8012 -21.3772 -23.789 0.0148451 0.0223297 -0.00360214 0 0 0
1441 6 23.5946 -18.9982 -23.8974 -0.0159309 -0.00471558 -0.0114772 0 0 0
1511 16 21.5801 -22.2096 -24.1706 -0.000945705 -0.00498957 0.00198847 0 0 0
1452 6 18.024 -17.3684 -16.7349 0.00686825 0.00184829 0.0127595 0 0 0
8645 16 -20.9926 -15.7918 -21.4455 0.00317844 -0.00173205 -0.00134917 0 0 1
8646 6 -20.5774 -15.2876 -22.1472 0.0186365 0.017079 0.0122833 0 0 1
355 6 -18.6389 -15.1889 -23.747 0.0124878 0.0173841 0.0234711 0 0 0
9612 6 -20.1657 -12.3778 -23.5814 -0.0136869 0.021598 0.00442433 0 0 1
165 6 -21.1293 -14.3612 -19.9579 0.00358549 0.0134001 -0.00428101 0 0 0
164 16 -21.2147 -13.5375 -19.4856 -0.00405896 -0.00354762 0.00235978 0 0 0
1392 6 -19.8334 -10.278 -20.94 -0.00249061 0.015109 0.0126709 1 0 0
368 16 -20.4601 -11.009 -19.4731 0.00144586 -0.00721891 0.00583158 0 0 0
370 6 -20.998 -11.8608 -19.5778 -0.0154927 0.00658403 -0.0157845 0 0 0
1391 16 -19.4711 -9.71796 -21.639 0.00693005 0.00296676 -0.00702157 1 0 0
1393 6 -18.53 -9.9574 -21.7502 0.0371611 0.0253083 0.00945755 1 0 0
369 6 -20.9646 -10.4145 -18.8506 -0.000239318 -0.00365678 0.012761 0 0 0
9893 16 -17.7392 -11.9116 -18.1144 0.00113186 -0.0021116 -0.00274067 0 0 1
9895 6 -18.2914 -11.3215 -18.7442 0.00168385 0.0122221 0.0119683 0 0 1
166 6 -20.8615 -13.733 -18.5951 -0.00414599 0.0102477 -0.0100907 0 0 0
1380 6 -23.9159 -16.2246 -22.3687 0.0200803 0.0202411 -0.0232085 1 0 0
1381 6 -22.7511 -15.9769 -21.4387 0.0274211 -0.0264029 0.0445512 1 0 0
1414 6 -24.0117 -10.4295 -16.5271 0.00706051 0.0124949 -0.0108395 1 0 0
1388 16 -19.357 -14.1791 -17.4466 0.00184977 0.00125905 0.000108588 1 0 0
1521 6 -23.7114 -12.1388 -21.9017 -0.00984879 -0.00263623 0.0285115 1 0 0
1389 6 -19.0486 -13.2339 -17.6411 0.015797 -0.000702882 0.0242518 1 0 0
1522 6 -23.1775 -13.4988 -21.4724 -0.00618198 -0.0113399 0.0164797 1 0 0
1379 16 -23.6254 -15.6393 -21.6503 0.00225013 0.00503325 0.00485546 1 0 0
1520 16 -23.0044 -12.7666 -22.1061 -0.000734927 0.00200184 -0.00459851 1 0 0
48 6 -18.9969 -15.8355 -17.1578 0.000886782 0.0167201 -0.0178 0 0 0
491 16 -22.0767 -8.74123 -22.5162 0.00427024 -0.00693743 0.000906742 0 0 0
9611 16 -20.3923 -13.1361 -23.013 -0.00133187 -0.0019321 -0.0069057 0 0 1
492 6 -22.2894 -9.27189 -23.3571 -0.0251459 -0.0126458 0.0146994 0 0 0
8880 6 -23.7345 -13.0315 -23.7852 -0.0236521 -0.00241189 -0.0130025 0 0 1
9613 6 -21.2126 -12.8904 -22.5103 0.00508019 0.00344457 -0.00337431 0 0 1
8570 16 -17.9318 -13.9701 -22.3002 -0.00184514 0.00336991 -0.000671109 0 0 1
1396 6 -23.7223 -8.38609 -21.7508 0.0104445 0.00469705 -0.0147833 1 0 0
493 6 -21.4298 -9.35488 -22.0284 -0.00521444 0.00829957 -0.0132603 0 0 0
8572 6 -17.5156 -13.181 -21.9036 0.015724 -0.000914535 0.00266313 0 0 1
8571 6 -18.8565 -13.6659 -22.3853 0.0230109 -0.0110842 -0.0175467 0 0 1
1317 6 -23.4315 -9.22547 -18.7121 -0.0162438 -0.0101279 0.00317707 1 0 0
1316 16 -24.3783 -9.3797 -18.8611 0.00455334 -0.00514635 -0.00188634 1 0 0
1395 6 -24.4691 -8.68553 -20.457 -0.0257371 -0.0129544 -0.0139698 1 0 0
664 6 -19.5108 -10.2727 -23.5646 -0.00595022 -0.00675873 0.0057837 0 0 0
662 16 -19.9597 -10.7344 -24.3173 -0.00324555 0.000100511 -0.00224983 0 0 0
98 16 -21.6008 -8.6921 -18.0385 0.00275796 -0.00193665 0.00403408 0 0 0
1390 6 -19.7126 -13.9687 -16.5067 0.00916839 0.00280282 0.00422976 1 0 0
99 6 -21.0308 -8.77349 -17.2361 -0.0205138 -0.00169318 -0.00965786 0 0 0
353 16 -18.9934 -15.6662 -24.4387 -4.50055e-05 0.00727499 -0.00341932 0 0 0
220 6 -16.4125 -15.9518 -19.0032 0.0206986 0.00819332 -0.00124587 0 0 0
358 6 -17.2981 -15.7101 -21.7313 0.0122682 0.0109192 0.0227815 0 0 0
323 16 -16.1836 -14.0696 -19.0672 -0.00347272 0.00225229 -0.00016886 0 0 0
324 6 -15.869 -13.5115 -19.8129 0.028678 0.0267203 -0.0212729 0 0 0
325 6 -15.4639 -14.0171 -18.352 -0.0297238 -0.0233493 0.000102418 0 0 0
9894 6 -17.3744 -12.628 -18.5571 0.0298644 0.00581374 -0.00179891 0 0 1
156 6 -16.3539 -9.97567 -22.064 0.00988652 -0.00366395 -0.0143624 0 0 0
155 16 -17.0077 -10.6817 -21.9043 -0.00324718 -0.00216019 -0.00136453 0 0 0
214 6 -10.7719 -13.793 -21.6087 -0.00725982 -0.0124287 0.00424956 0 0 0
8898 6 -14.1615 -15.8524 -22.1857 -0.0144749 -0.0180626 -0.0205279 0 0 1
212 16 -10.9751 -14.075 -22.5127 -0.00216916 0.00273979 0.00155028 0 0 0
9669 6 -16.3819 -8.46778 -23.7158 -0.0182432 0.0166875 -0.0048709 0 0 1
3453 6 -13.4824 -15.7725 -19.5462 0.00957328 0.0144935 -0.0114044 0 1 0
222 6 -12.8989 -11.0248 -20.6887 -0.00437383 0.0281168 0.0165051 0 0 0
221 16 -12.7933 -11.7262 -20.0361 0.00556111 0.00500134 0.00111023 0 0 0
223 6 -12.9197 -11.1954 -19.2673 0.00184033 -0.0130677 0.0113706 0 0 0
8897 16 -14.1211 -16.2576 -21.2575 0.00680762 0.00723131 0.00171945 0 0 1
446 16 -13.6289 -13.7509 -23.3845 0.00229327 -0.000768701 0.00359606 0 0 0
337 6 -14.826 -12.9818 -22.271 0.0248285 0.010382 0.0103611 0 0 0
335 16 -15.1385 -12.6631 -21.3883 6.54122e-05 -0.000574747 -0.000406768 0 0 0
336 6 -14.2411 -12.421 -21.0192 0.00682723 0.0154026 -0.00832532 0 0 0
227 16 -12.7239 -9.2235 -18.334 -0.004239 -0.00201299 0.00202918 0 0 0
447 6 -12.6186 -13.8106 -23.1386 0.00695568 0.00442212 -0.0020973 0 0 0
347 16 -14.3194 -13.8749 -16.9689 0.000239101 -0.00132835 -0.00628703 0 0 0
157 6 -16.4182 -11.4478 -21.7785 -0.0109653 -0.0176069 -0.00470929 0 0 0
3452 16 -12.9256 -15.3471 -18.852 -0.00461741 0.0032625 -0.00615894 0 1 0
3454 6 -12.7579 -16.1283 -18.2786 0.0163014 -0.0043498 -0.00280384 0 1 0
349 6 -13.7312 -14.3151 -17.5597 -0.00128029 -0.0263772 -0.0101253 0 0 0
295 6 -12.5675 -10.7918 -17.0343 0.0120405 -0.00654845 0.00545494 0 0 0
293 16 -12.7643 -11.6284 -16.4844 0.00111718 0.00243123 0.000289509 0 0 0
9668 16 -15.877 -8.2252 -22.9729 0.00386624 0.0010088 0.00679378 0 0 1
348 6 -13.7849 -13.091 -16.6807 -0.0224783 0.00246988 0.00458704 0 0 0
41 16 -10.8823 -13.9338 -19.6905 0.00643116 -0.00104191 -0.00418915 0 0 0
42 6 -11.4823 -14.5056 -19.2705 -0.00878848 0.00224577 0.0433047 0 0 0
43 6 -11.3142 -13.0848 -19.6839 0.0140779 -0.00301926 -0.0111459 0 0 0
524 16 -12.4708 -10.0353 -22.1206 -0.0108902 0.00204041 0.000546906 0 0 0
213 6 -10.9719 -15.0937 -22.4077 -0.0102194 0.0106711 0.0331395 0 0 0
448 6 -13.6239 -14.1149 -24.333 0.0254086 0.0133359 -0.0347351 0 0 0
525 6 -11.6212 -9.95656 -22.4344 0.00137943 0.00407859 -0.00315916 0 0 0
526 6 -12.8959 -9.18117 -22.3514 0.00263425 0.00198123 0.026494 0 0 0
229 6 -13.6232 -9.14674 -17.9263 0.00255254 -0.0199574 0.00434506 0 0 0
228 6 -12.5283 -8.36168 -18.7083 0.026346 -0.0235835 -0.0175831 0 0 0
2026 6 -16.3282 -8.45248 -17.9476 -0.00773019 0.000926101 0.0293895 0 0 0
2025 6 -15.7957 -9.02219 -16.6228 0.00515175 0.0137738 0.014502 0 0 0
2024 16 -15.5094 -8.79871 -17.5005 -4.6527e-06 0.00384338 -0.00188322 0 0 0
139 6 -17.0317 -12.5443 -16.638 -0.0147611 0.0234771 -0.0385968 0 0 0
85 6 -10.7354 -12.1269 -16.8936 0.0269392 -0.0451532 0.000686606 0 0 0
331 6 -16.3203 -11.7201 -24.4611 -0.0166035 0.0327031 -0.0149613 0 0 0
540 6 -5.33849 -15.9021 -18.1256 -0.0021786 0.00570972 0.014014 0 0 0
316 6 -7.87087 -15.4277 -16.385 0.00959235 0.0125554 -0.00161878 0 0 0
508 6 -6.82639 -9.56946 -24.3496 0.000644728 0.00616241 -0.014263 0 0 0
151 6 -9.98074 -14.2879 -16.6254 -0.0178137 -0.00251805 0.0209436 0 0 0
1030 6 -3.9447 -15.982 -16.3614 -0.0135847 0.00958651 0.0317216 0 0 0
149 16 -9.90081 -15.2141 -16.3875 0.00461961 0.00255522 0.00070071 0 0 0
684 6 -9.00449 -14.2968 -19.586 0.00798505 0.0104662 1.07259e-05 0 0 0
683 16 -8.10443 -14.6943 -19.7334 -0.00466593 0.00465611 0.00243069 0 0 0
685 6 -8.22895 -15.5981 -19.4736 -0.0450525 0.00401668 -0.0023362 0 0 0
385 6 -7.59364 -9.84757 -21.5896 -0.0188465 -0.000606147 0.01145 0 0 0
509 16 -8.35593 -14.4606 -23.6481 0.00324987 0.00594935 -0.00282402 0 0 0
510 6 -9.27156 -14.1349 -23.7602 -0.00303686 -0.0372836 -0.00373143 0 0 0