CHARMM-GUI lammps input

             11135  atoms
              7432  bonds
              3755  angles
                78  dihedrals
                 6  impropers

                17  atom types
                17  bond types
                29  angle types
                36  dihedral types
                 5  improper types

    -24.5000      24.5000 xlo xhi
    -24.5000      24.5000 ylo yhi
    -24.5000      24.5000 zlo zhi

Masses

       1         1.008  # H
       2         1.008  # HA2
       3         1.008  # HA3
       4         1.008  # HB1
       5         1.008  # HC
       6         1.008  # HT
       7        12.011  # C
       8        12.011  # CC
       9        12.011  # CT1
      10        12.011  # CT2
      11        12.011  # CT3
      12        14.007  # NH1
      13        14.007  # NH2
      14        14.007  # NH3
      15        15.999  # O
      16        15.999  # OT
      17        35.450  # CLA

Pair Coeffs

       1 0.04600000000000 0.40001352444501 0.04600000000000 0.40001352444501 # H
       2 0.03400000000000 2.38760856461611 0.03400000000000 2.38760856461611 # HA2
       3 0.02400000000000 2.38760856461611 0.02400000000000 2.38760856461611 # HA3
       4 0.02200000000000 2.35197261589050 0.02200000000000 2.35197261589050 # HB1
       5 0.04600000000000 0.40001352444501 0.04600000000000 0.40001352444501 # HC
       6 0.04600000000000 0.40001352444501 0.04600000000000 0.40001352444501 # HT
       7 0.11000000000000 3.56359487256136 0.11000000000000 3.56359487256136 # C
       8 0.07000000000000 3.56359487256136 0.07000000000000 3.56359487256136 # CC
       9 0.03200000000000 3.56359487256136 0.01000000000000 3.38541512893329 # CT1
      10 0.05600000000000 3.58141284692416 0.01000000000000 3.38541512893329 # CT2
      11 0.07800000000000 3.63486677001258 0.01000000000000 3.38541512893329 # CT3
      12 0.20000000000000 3.29632525711926 0.20000000000000 2.76178602623505 # NH1
      13 0.20000000000000 3.29632525711926 0.20000000000000 3.29632525711926 # NH2
      14 0.20000000000000 3.29632525711926 0.20000000000000 3.29632525711926 # NH3
      15 0.12000000000000 3.02905564167715 0.12000000000000 2.49451641079295 # O
      16 0.15210000000000 3.15057422683150 0.15210000000000 3.15057422683150 # OT
      17 0.15000000000000 4.04468018035714 0.15000000000000 4.04468018035714 # CLA

Atoms

           1       35     11  -0.270     3.4715626764    -2.2906372407     0.2425830126 # PROA-35-LYS-CAY-CT3
           2       35      3   0.090     4.5456326232    -2.4386025492    -0.0018963302 # PROA-35-LYS-HY1-HA3
           3       35      3   0.090     2.8802148823    -3.0738491498    -0.2761998963 # PROA-35-LYS-HY2-HA3
           4       35      3   0.090     3.3420951439    -2.3975624361     1.3392413215 # PROA-35-LYS-HY3-HA3
           5       35      7   0.510     3.0440852282    -0.9350989452    -0.2044952367 # PROA-35-LYS-CY-C
           6       35     15  -0.510     3.7921763105    -0.2232353098    -0.8727091973 # PROA-35-LYS-OY-O
           7       35     12  -0.470     1.8103320948    -0.5438581806     0.1613037106 # PROA-35-LYS-N-NH1
           8       35      1   0.310     1.1978241480    -1.1422615314     0.6643497399 # PROA-35-LYS-HN-H
           9       35      9   0.070     1.3154880884     0.7655486437    -0.2340545795 # PROA-35-LYS-CA-CT1
          10       35      4   0.090     1.3595101207     0.8587835385    -1.3118376364 # PROA-35-LYS-HA-HB1
          11       35     10  -0.180    -0.1329043878     1.0013540701     0.2464451975 # PROA-35-LYS-CB-CT2
          12       35      2   0.090    -0.4216457560     2.0426099465    -0.0122194659 # PROA-35-LYS-HB1-HA2
          13       35      2   0.090    -0.1629790794     0.9170347174     1.3569751936 # PROA-35-LYS-HB2-HA2
          14       35     10  -0.180    -1.1365788593     0.0537041329    -0.3622305387 # PROA-35-LYS-CG-CT2
          15       35      2   0.090    -0.8989856587    -0.9964138082    -0.0719053005 # PROA-35-LYS-HG1-HA2
          16       35      2   0.090    -1.0787511266     0.1149686694    -1.4762318954 # PROA-35-LYS-HG2-HA2
          17       35     10  -0.180    -2.5288877152     0.4166429339     0.0945051358 # PROA-35-LYS-CD-CT2
          18       35      2   0.090    -2.7772393923     1.4542965256    -0.2331134416 # PROA-35-LYS-HD1-HA2
          19       35      2   0.090    -2.5298498612     0.4010141999     1.2094231027 # PROA-35-LYS-HD2-HA2
          20       35     10   0.210    -3.5351325705    -0.5505888807    -0.4396324008 # PROA-35-LYS-CE-CT2
          21       35      2   0.050    -3.2125239237    -1.5973067815    -0.2298847686 # PROA-35-LYS-HE1-HA2
          22       35      2   0.050    -3.6714942257    -0.4390307244    -1.5389582444 # PROA-35-LYS-HE2-HA2
          23       35     14  -0.300    -4.8501663892    -0.3622023961     0.2143519935 # PROA-35-LYS-NZ-NH3
          24       35      5   0.330    -5.3240664867     0.4730297986    -0.2017694869 # PROA-35-LYS-HZ1-HC
          25       35      5   0.330    -4.7790567537    -0.2898276602     1.2455287610 # PROA-35-LYS-HZ2-HC
          26       35      5   0.330    -5.4196153230    -1.2020853171    -0.0694405779 # PROA-35-LYS-HZ3-HC
          27       35      8   0.550     2.2952647106     1.7521816843     0.3837431332 # PROA-35-LYS-C-CC
          28       35     15  -0.550     2.0173613901     2.4061440155     1.3935272754 # PROA-35-LYS-O-O
          29       35     13  -0.620     3.4997774791     1.8791860893    -0.2348188050 # PROA-35-LYS-NT-NH2
          30       35      1   0.320     3.7593659044     1.2267382491    -0.9484427093 # PROA-35-LYS-HT1-H
          31       35      1   0.300     4.1658227116     2.5058760312     0.1490175109 # PROA-35-LYS-HT2-H
          32        1     16  -0.834   -12.3331782669   -14.2359994118   -17.9055483986 # SOLV-1-TIP3-OH2-OT
          33        1      6   0.417   -12.5722971663   -13.2900698434   -18.0486636664 # SOLV-1-TIP3-H1-HT
          34        1      6   0.417   -13.0045447278   -14.6540701699   -18.4718837002 # SOLV-1-TIP3-H2-HT
          35        2     16  -0.834   -13.5657106707   -15.0022839461   -13.8448532348 # SOLV-2-TIP3-OH2-OT
          36        2      6   0.417   -13.2871374871   -15.4514308156   -13.0211566009 # SOLV-2-TIP3-H1-HT
          37        2      6   0.417   -14.0350290436   -15.7265796015   -14.2935299724 # SOLV-2-TIP3-H2-HT
          38        3     16  -0.834   -21.3225961817   -15.7794550613   -12.6432455630 # SOLV-3-TIP3-OH2-OT
          39        3      6   0.417   -21.2754348600   -16.5537989932   -12.0499046515 # SOLV-3-TIP3-H1-HT
          40        3      6   0.417   -20.3949945210   -15.5045250459   -12.6850789084 # SOLV-3-TIP3-H2-HT
          41        4     16  -0.834    -9.7160716271   -11.9410281934   -15.6448638842 # SOLV-4-TIP3-OH2-OT
          42        4      6   0.417   -10.1548970300   -12.6599663248   -15.1578329051 # SOLV-4-TIP3-H1-HT
          43        4      6   0.417    -9.4796394639   -11.3138294345   -14.9378310834 # SOLV-4-TIP3-H2-HT
          44        5     16  -0.834   -19.9931869936   -10.8893830767   -14.3570023182 # SOLV-5-TIP3-OH2-OT
          45        5      6   0.417   -20.2051612172   -11.8162662055   -14.6055272191 # SOLV-5-TIP3-H1-HT
          46        5      6   0.417   -19.0234293361   -10.9569833960   -14.2806420287 # SOLV-5-TIP3-H2-HT
          47        6     16  -0.834   -23.3148098066   -17.3448401174   -19.1983176734 # SOLV-6-TIP3-OH2-OT
          48        6      6   0.417   -23.9235931632   -16.5975697379   -19.0951440720 # SOLV-6-TIP3-H1-HT
          49        6      6   0.417   -23.7023449402   -17.7955100398   -19.9588756611 # SOLV-6-TIP3-H2-HT
          50        7     16  -0.834   -23.0681023446   -15.2069906469   -15.9895495325 # SOLV-7-TIP3-OH2-OT
          51        7      6   0.417   -22.7521636576   -16.1263000472   -15.8797197023 # SOLV-7-TIP3-H1-HT
          52        7      6   0.417   -22.5226424431   -14.8858548082   -16.7103246545 # SOLV-7-TIP3-H2-HT
          53        8     16  -0.834   -12.4338195940    -7.0918250890   -15.3615635097 # SOLV-8-TIP3-OH2-OT
          54        8      6   0.417   -12.0809536811    -7.6955310974   -16.0448709229 # SOLV-8-TIP3-H1-HT
          55        8      6   0.417   -12.8674785048    -7.7067115954   -14.7610227044 # SOLV-8-TIP3-H2-HT
          56        9     16  -0.834   -15.1943978299   -12.5344734929   -13.7841199443 # SOLV-9-TIP3-OH2-OT
          57        9      6   0.417   -14.7418310212   -13.3364537928   -14.1066069630 # SOLV-9-TIP3-H1-HT
          58        9      6   0.417   -14.4863535412   -12.1937535199   -13.1989307125 # SOLV-9-TIP3-H2-HT
          59       10     16  -0.834    -6.1779900938   -21.1140826260   -12.8942379254 # SOLV-10-TIP3-OH2-OT
          60       10      6   0.417    -6.0266647803   -20.3349577365   -12.3231258559 # SOLV-10-TIP3-H1-HT
          61       10      6   0.417    -5.5551380973   -20.9382128978   -13.6300956273 # SOLV-10-TIP3-H2-HT
          62       11     16  -0.834   -11.9967084922   -18.2986321145   -13.7661043863 # SOLV-11-TIP3-OH2-OT
          63       11      6   0.417   -11.7609918474   -19.2380102639   -13.6273397090 # SOLV-11-TIP3-H1-HT
          64       11      6   0.417   -12.1834236130   -18.3060458180   -14.7270899287 # SOLV-11-TIP3-H2-HT
          65       12     16  -0.834   -18.3489532987   -20.2208895070   -16.3070058018 # SOLV-12-TIP3-OH2-OT
          66       12      6   0.417   -18.3321101980   -19.3506806290   -16.7561413721 # SOLV-12-TIP3-H1-HT
          67       12      6   0.417   -18.9090710876   -20.7178162744   -16.9405084732 # SOLV-12-TIP3-H2-HT
          68       13     16  -0.834   -10.7514526427   -19.9634314966   -18.0543540128 # SOLV-13-TIP3-OH2-OT
          69       13      6   0.417   -10.3032391080   -20.1992693513   -17.2071385400 # SOLV-13-TIP3-H1-HT
          70       13      6   0.417   -10.0191928709   -19.5451225230   -18.5462265151 # SOLV-13-TIP3-H2-HT
          71       14     16  -0.834   -22.0306709036   -17.7360968950   -15.6567183821 # SOLV-14-TIP3-OH2-OT
          72       14      6   0.417   -21.3302247321   -18.1927434447   -15.1543652695 # SOLV-14-TIP3-H1-HT
          73       14      6   0.417   -21.8751744979   -18.1044672132   -16.5503946351 # SOLV-14-TIP3-H2-HT
          74       15     16  -0.834   -17.3027692396   -16.2973831635   -15.9275483260 # SOLV-15-TIP3-OH2-OT
          75       15      6   0.417   -16.4335417483   -16.6863074494   -15.6886459785 # SOLV-15-TIP3-H1-HT
          76       15      6   0.417   -17.6700195371   -16.9736501618   -16.5367906569 # SOLV-15-TIP3-H2-HT
          77       16     16  -0.834    -5.8320974804   -19.4041215168   -10.7649396688 # SOLV-16-TIP3-OH2-OT
          78       16      6   0.417    -6.6721227589   -18.9117816161   -10.8880053275 # SOLV-16-TIP3-H1-HT
          79       16      6   0.417    -5.6963917560   -19.3153690979    -9.8067235918 # SOLV-16-TIP3-H2-HT
          80       17     16  -0.834   -19.8068703885   -21.1617554078   -12.2635006753 # SOLV-17-TIP3-OH2-OT
          81       17      6   0.417   -20.1179287759   -20.5757782705   -12.9821560653 # SOLV-17-TIP3-H1-HT
          82       17      6   0.417   -20.4649225740   -20.9516884253   -11.5630181219 # SOLV-17-TIP3-H2-HT
          83       18     16  -0.834   -13.0971807731   -11.8416626013   -18.8395577111 # SOLV-18-TIP3-OH2-OT
          84       18      6   0.417   -12.9489042369   -11.6030932869   -19.7669132314 # SOLV-18-TIP3-H1-HT
          85       18      6   0.417   -13.4588487246   -10.9990263522   -18.4902805899 # SOLV-18-TIP3-H2-HT
          86       19     16  -0.834   -17.3083170177   -13.3999958028   -12.2828698062 # SOLV-19-TIP3-OH2-OT
          87       19      6   0.417   -17.8144183387   -12.6269123485   -11.9513819565 # SOLV-19-TIP3-H1-HT
          88       19      6   0.417   -16.5935713646   -12.9685192315   -12.7977051363 # SOLV-19-TIP3-H2-HT
          89       20     16  -0.834    -9.8078044167   -20.4232643715   -15.5737677550 # SOLV-20-TIP3-OH2-OT
          90       20      6   0.417   -10.3487527623   -20.7832753051   -14.8472969124 # SOLV-20-TIP3-H1-HT
          91       20      6   0.417    -9.1924514203   -19.8456204078   -15.0725489642 # SOLV-20-TIP3-H2-HT
          92       21     16  -0.834   -20.1752375070   -19.4101929614   -14.3853159456 # SOLV-21-TIP3-OH2-OT
          93       21      6   0.417   -19.6013899289   -18.8594208801   -13.8097847608 # SOLV-21-TIP3-H1-HT
          94       21      6   0.417   -19.5097289517   -19.7736008681   -15.0086383408 # SOLV-21-TIP3-H2-HT
          95       22     16  -0.834   -18.8108953207   -11.3084575244   -11.1255371766 # SOLV-22-TIP3-OH2-OT
          96       22      6   0.417   -18.7867068477   -10.3325915691   -11.2221290326 # SOLV-22-TIP3-H1-HT
          97       22      6   0.417   -19.7418492284   -11.4221026197   -10.8586761324 # SOLV-22-TIP3-H2-HT
          98       23     16  -0.834   -22.8127910529   -11.9964586104   -19.9998871866 # SOLV-23-TIP3-OH2-OT
          99       23      6   0.417   -23.6344484221   -11.7885219364   -20.4882070275 # SOLV-23-TIP3-H1-HT
         100       23      6   0.417   -22.5580276729   -11.1164757879   -19.6526572382 # SOLV-23-TIP3-H2-HT
         101       24     16  -0.834    -9.3543770982    -9.9183418904   -13.6689282044 # SOLV-24-TIP3-OH2-OT
         102       24      6   0.417   -10.3304564326    -9.8985995819   -13.5353080281 # SOLV-24-TIP3-H1-HT
         103       24      6   0.417    -9.1707949879    -8.9864139427   -13.9061374459 # SOLV-24-TIP3-H2-HT
         104       25     16  -0.834    -8.5924676184   -21.5447202291   -11.6796927745 # SOLV-25-TIP3-OH2-OT
         105       25      6   0.417    -9.2866245843   -21.6868850545   -12.3345702512 # SOLV-25-TIP3-H1-HT
         106       25      6   0.417    -7.8082367074   -21.4090704394   -12.2598948462 # SOLV-25-TIP3-H2-HT
         107       26     16  -0.834   -16.2938952451   -23.4688311556   -15.0861750095 # SOLV-26-TIP3-OH2-OT
         108       26      6   0.417   -16.4136522964   -24.4178193381   -15.2017085130 # SOLV-26-TIP3-H1-HT
         109       26      6   0.417   -17.1851055229   -23.1799329589   -14.8086987603 # SOLV-26-TIP3-H2-HT
         110       27     16  -0.834   -11.2384542981    -8.4013410798   -17.5514633490 # SOLV-27-TIP3-OH2-OT
         111       27      6   0.417   -10.8233773727    -9.2755376394   -17.7605567934 # SOLV-27-TIP3-H1-HT
         112       27      6   0.417   -10.4199596585    -7.8590016524   -17.4564612407 # SOLV-27-TIP3-H2-HT
         113       28     16  -0.834   -10.0492728852   -10.7583339820   -18.1199284548 # SOLV-28-TIP3-OH2-OT
         114       28      6   0.417   -10.0269736380   -11.4974972253   -18.7387341850 # SOLV-28-TIP3-H1-HT
         115       28      6   0.417    -9.9074558872   -11.2140638169   -17.2589251831 # SOLV-28-TIP3-H2-HT
         116       29     16  -0.834    -8.2522445542   -12.1197686275   -10.1096641496 # SOLV-29-TIP3-OH2-OT
         117       29      6   0.417    -8.3716632319   -12.6856963032   -10.9027137658 # SOLV-29-TIP3-H1-HT
         118       29      6   0.417    -8.1653835745   -11.2330724154   -10.5232828294 # SOLV-29-TIP3-H2-HT
         119       30     16  -0.834   -13.7773222315   -15.1742592680   -20.0806897246 # SOLV-30-TIP3-OH2-OT
         120       30      6   0.417   -14.4088231655   -14.4464049197   -20.2583647992 # SOLV-30-TIP3-H1-HT
         121       30      6   0.417   -13.1744818723   -15.0950634193   -20.8371011022 # SOLV-30-TIP3-H2-HT
         122       31     16  -0.834   -13.4855873269   -16.4878490708   -23.3486623487 # SOLV-31-TIP3-OH2-OT
         123       31      6   0.417   -12.7463823907   -16.2182129322   -22.7659054952 # SOLV-31-TIP3-H1-HT
         124       31      6   0.417   -13.0724401467   -17.2343336961   -23.8365685343 # SOLV-31-TIP3-H2-HT
         125       32     16  -0.834    -6.5737553378   -15.4781072118   -11.6981452935 # SOLV-32-TIP3-OH2-OT
         126       32      6   0.417    -7.3107492817   -14.8482482498   -11.8467296830 # SOLV-32-TIP3-H1-HT
         127       32      6   0.417    -5.9824250514   -15.2196754126   -12.4396220610 # SOLV-32-TIP3-H2-HT
         128       33     16  -0.834   -10.1967386284   -14.8383155187   -19.4254662985 # SOLV-33-TIP3-OH2-OT
         129       33      6   0.417   -10.8984631536   -14.6062560475   -18.7713669985 # SOLV-33-TIP3-H1-HT
         130       33      6   0.417    -9.5890509743   -15.3538405556   -18.8536812980 # SOLV-33-TIP3-H2-HT
         131       34     16  -0.834   -10.6422222658   -16.8759758134    -9.8590885294 # SOLV-34-TIP3-OH2-OT
         132       34      6   0.417   -10.6900459607   -16.1437901291    -9.2102204918 # SOLV-34-TIP3-H1-HT
         133       34      6   0.417   -11.3090756928   -16.5920192740   -10.5188669595 # SOLV-34-TIP3-H2-HT
         134       35     16  -0.834   -18.6927387789   -14.3783608837   -17.3619805210 # SOLV-35-TIP3-OH2-OT
         135       35      6   0.417   -18.8667973512   -14.8007402149   -18.2255216684 # SOLV-35-TIP3-H1-HT
         136       35      6   0.417   -18.1480190809   -15.0536286072   -16.9058067323 # SOLV-35-TIP3-H2-HT
         137       36     16  -0.834   -17.2055988927   -10.7607433936   -14.7621928292 # SOLV-36-TIP3-OH2-OT
         138       36      6   0.417   -17.1408971155   -10.7189342240   -15.7328561579 # SOLV-36-TIP3-H1-HT
         139       36      6   0.417   -16.4874118218   -11.3837617653   -14.5285422498 # SOLV-36-TIP3-H2-HT
         140       37     16  -0.834   -18.5621395125   -15.4873985983   -13.5929835807 # SOLV-37-TIP3-OH2-OT
         141       37      6   0.417   -18.0451118801   -15.7009853072   -14.4024767069 # SOLV-37-TIP3-H1-HT
         142       37      6   0.417   -18.0334479761   -14.7554720063   -13.2055608480 # SOLV-37-TIP3-H2-HT
         143       38     16  -0.834   -11.9712804429    -9.8961189635   -12.9732517784 # SOLV-38-TIP3-OH2-OT
         144       38      6   0.417   -12.1672615558    -9.2415726784   -12.2789782962 # SOLV-38-TIP3-H1-HT
         145       38      6   0.417   -12.3993740444   -10.7046802684   -12.6240366772 # SOLV-38-TIP3-H2-HT
         146       39     16  -0.834   -17.2587960623   -11.0413957173    -8.8981094062 # SOLV-39-TIP3-OH2-OT
         147       39      6   0.417   -17.9502024638   -10.4612216691    -8.5066680417 # SOLV-39-TIP3-H1-HT
         148       39      6   0.417   -17.7292803064   -11.3214525633    -9.7116813503 # SOLV-39-TIP3-H2-HT
         149       40     16  -0.834   -11.3952230990   -15.6148819248   -21.7532413901 # SOLV-40-TIP3-OH2-OT
         150       40      6   0.417   -10.9648708515   -15.2879606060   -20.9309036412 # SOLV-40-TIP3-H1-HT
         151       40      6   0.417   -10.7969988852   -15.1972141953   -22.4187811900 # SOLV-40-TIP3-H2-HT
         152       41     16  -0.834   -20.5635233696   -15.3280306807    -9.3615807777 # SOLV-41-TIP3-OH2-OT
         153       41      6   0.417   -20.4341822407   -14.4396017386    -8.9704987448 # SOLV-41-TIP3-H1-HT
         154       41      6   0.417   -21.5062649392   -15.2596050715    -9.6272682005 # SOLV-41-TIP3-H2-HT
         155       42     16  -0.834   -13.7591789170    -9.2527939388   -18.2746800885 # SOLV-42-TIP3-OH2-OT
         156       42      6   0.417   -12.8687925468    -8.9673770151   -18.0009518475 # SOLV-42-TIP3-H1-HT
         157       42      6   0.417   -14.0881148329    -8.4744493752   -18.7431035809 # SOLV-42-TIP3-H2-HT
         158       43     16  -0.834   -19.3205499070    -9.3620790836    -8.3276006812 # SOLV-43-TIP3-OH2-OT
         159       43      6   0.417   -19.2253052986    -9.0082300388    -9.2369259602 # SOLV-43-TIP3-H1-HT
         160       43      6   0.417   -20.2930321745    -9.3478521052    -8.2139142902 # SOLV-43-TIP3-H2-HT
         161       44     16  -0.834    -8.4599240147   -23.7142971890   -22.6217962632 # SOLV-44-TIP3-OH2-OT
         162       44      6   0.417    -8.7344656093   -23.5330183892   -21.7056662011 # SOLV-44-TIP3-H1-HT
         163       44      6   0.417    -7.6305282047   -23.2042977445   -22.7055257987 # SOLV-44-TIP3-H2-HT
         164       45     16  -0.834   -19.3995052120   -15.2279931079   -20.0101321662 # SOLV-45-TIP3-OH2-OT
         165       45      6   0.417   -19.9713014767   -14.5407920395   -20.4263236460 # SOLV-45-TIP3-H1-HT
         166       45      6   0.417   -20.0182215571   -15.9614370594   -19.9251602357 # SOLV-45-TIP3-H2-HT
         167       46     16  -0.834    -6.6030764160    -9.4075804556   -23.1970143970 # SOLV-46-TIP3-OH2-OT
         168       46      6   0.417    -6.3458456991    -8.4650417487   -23.2023244325 # SOLV-46-TIP3-H1-HT
         169       46      6   0.417    -5.7532989472    -9.8356844285   -22.9810307488 # SOLV-46-TIP3-H2-HT
         170       47     16  -0.834   -22.8669990325   -13.0065055381   -11.1010799734 # SOLV-47-TIP3-OH2-OT
         171       47      6   0.417   -23.0134418607   -13.3882212330   -11.9895072429 # SOLV-47-TIP3-H1-HT
         172       47      6   0.417   -23.4441175619   -13.5703715720   -10.5610731789 # SOLV-47-TIP3-H2-HT
         173       48     16  -0.834   -23.4748182645    -9.8681439310   -14.1143909539 # SOLV-48-TIP3-OH2-OT
         174       48      6   0.417   -22.8511135395   -10.5483748252   -14.3913088491 # SOLV-48-TIP3-H1-HT
         175       48      6   0.417   -23.0784203681    -9.5584940060   -13.2781970464 # SOLV-48-TIP3-H2-HT
         176       49     16  -0.834    -5.7485987075    -9.1425899202    -8.0562008965 # SOLV-49-TIP3-OH2-OT
         177       49      6   0.417    -5.8716082118   -10.1132929267    -8.1147855090 # SOLV-49-TIP3-H1-HT
         178       49      6   0.417    -6.6531716373    -8.8739410594    -7.7755192018 # SOLV-49-TIP3-H2-HT
         179       50     16  -0.834   -14.8870097264    -9.9031856425    -9.5501098172 # SOLV-50-TIP3-OH2-OT
         180       50      6   0.417   -14.9504113999    -9.0292623156    -9.1056484805 # SOLV-50-TIP3-H1-HT
         181       50      6   0.417   -15.7554395833   -10.2907871839    -9.2924413968 # SOLV-50-TIP3-H2-HT
         182       51     16  -0.834   -14.0846202428    -6.4243138697   -19.6951143498 # SOLV-51-TIP3-OH2-OT
         183       51      6   0.417   -14.4353560652    -6.3016214579   -20.5888795962 # SOLV-51-TIP3-H1-HT
         184       51      6   0.417   -14.3937483781    -5.6165261552   -19.2499739918 # SOLV-51-TIP3-H2-HT
         185       52     16  -0.834   -20.7096928366    -7.5542329329   -17.6817265137 # SOLV-52-TIP3-OH2-OT
         186       52      6   0.417   -20.5321330232    -7.8855714682   -16.7736604326 # SOLV-52-TIP3-H1-HT
         187       52      6   0.417   -21.2228207629    -8.2932691745   -18.0718734831 # SOLV-52-TIP3-H2-HT
         188       53     16  -0.834   -11.6645312537    -6.2554632352   -22.4468995787 # SOLV-53-TIP3-OH2-OT
         189       53      6   0.417   -11.0772410435    -6.9198280839   -22.8854614654 # SOLV-53-TIP3-H1-HT
         190       53      6   0.417   -11.4211472330    -6.4250586777   -21.5109964009 # SOLV-53-TIP3-H2-HT
         191       54     16  -0.834   -11.3749708282    -6.7070846100   -19.7497229103 # SOLV-54-TIP3-OH2-OT
         192       54      6   0.417   -12.3527406474    -6.6935609414   -19.6875191396 # SOLV-54-TIP3-H1-HT
         193       54      6   0.417   -11.1550966166    -7.3378451850   -19.0416464584 # SOLV-54-TIP3-H2-HT
         194       55     16  -0.834    -8.7195251939   -18.0505563518    -7.8987879948 # SOLV-55-TIP3-OH2-OT
         195       55      6   0.417    -9.4215415953   -17.7886591953    -8.5161788789 # SOLV-55-TIP3-H1-HT
         196       55      6   0.417    -8.6234734161   -19.0039778117    -8.1083541488 # SOLV-55-TIP3-H2-HT
         197       56     16  -0.834   -21.3720511201   -11.1929485002    -9.8215089384 # SOLV-56-TIP3-OH2-OT
         198       56      6   0.417   -21.0556491488   -11.8252670163    -9.1451475222 # SOLV-56-TIP3-H1-HT
         199       56      6   0.417   -21.9785163373   -11.7844533416   -10.3352482596 # SOLV-56-TIP3-H2-HT
         200       57     16  -0.834   -18.8428206319   -23.1768131858   -13.7901863765 # SOLV-57-TIP3-OH2-OT
         201       57      6   0.417   -19.6423417253   -23.1830812574   -14.3566992453 # SOLV-57-TIP3-H1-HT
         202       57      6   0.417   -19.1554861977   -22.5216908648   -13.1260307393 # SOLV-57-TIP3-H2-HT
         203       58     16  -0.834   -13.9183881249   -23.1874164496    -9.9244188955 # SOLV-58-TIP3-OH2-OT
         204       58      6   0.417   -13.6678395231   -24.0291336216    -9.5340173202 # SOLV-58-TIP3-H1-HT
         205       58      6   0.417   -14.8791560499   -23.1534264210    -9.7389358522 # SOLV-58-TIP3-H2-HT
         206       59     16  -0.834   -11.1470485333   -19.5428454826    -9.6159061905 # SOLV-59-TIP3-OH2-OT
         207       59      6   0.417   -11.7925952564   -19.6228306400    -8.8744297154 # SOLV-59-TIP3-H1-HT
         208       59      6   0.417   -11.1043496302   -18.5762884085    -9.7666477208 # SOLV-59-TIP3-H2-HT
         209       60     16  -0.834    -9.6992590819   -14.3242122092   -23.4684196241 # SOLV-60-TIP3-OH2-OT
         210       60      6   0.417   -10.1018092071   -14.2165551462   -24.3564374101 # SOLV-60-TIP3-H1-HT
         211       60      6   0.417    -9.1613971371   -13.5312416864   -23.3918040897 # SOLV-60-TIP3-H2-HT
         212       61     16  -0.834   -14.6056321907   -20.7932979786   -23.1691351249 # SOLV-61-TIP3-OH2-OT
         213       61      6   0.417   -15.1034204853   -21.1088514592   -22.3884300249 # SOLV-61-TIP3-H1-HT
         214       61      6   0.417   -15.2582579996   -20.8827129194   -23.8718594671 # SOLV-61-TIP3-H2-HT
         215       62     16  -0.834   -18.6722664405   -18.0109169483   -12.5569455285 # SOLV-62-TIP3-OH2-OT
         216       62      6   0.417   -19.3879426172   -17.9708072876   -11.8849916964 # SOLV-62-TIP3-H1-HT
         217       62      6   0.417   -18.6284083853   -17.0745836697   -12.8509961787 # SOLV-62-TIP3-H2-HT
         218       63     16  -0.834   -18.6704928685   -17.8995109862   -17.6970682069 # SOLV-63-TIP3-OH2-OT
         219       63      6   0.417   -19.6412632188   -18.0387700737   -17.7616922274 # SOLV-63-TIP3-H1-HT
         220       63      6   0.417   -18.4173529159   -18.1432481301   -18.6159939490 # SOLV-63-TIP3-H2-HT
         221       64     16  -0.834   -13.2752608780   -17.6434717577   -18.9597877155 # SOLV-64-TIP3-OH2-OT
         222       64      6   0.417   -13.4700815764   -16.7512906234   -19.3212164848 # SOLV-64-TIP3-H1-HT
         223       64      6   0.417   -12.5506124728   -17.9360322258   -19.5510070053 # SOLV-64-TIP3-H2-HT
         224       65     16  -0.834   -14.1160896006   -17.4730773106    -7.8581773408 # SOLV-65-TIP3-OH2-OT
         225       65      6   0.417   -14.6042635046   -18.2379887302    -7.4859222105 # SOLV-65-TIP3-H1-HT
         226       65      6   0.417   -13.2724064100   -17.5529863516    -7.3708052796 # SOLV-65-TIP3-H2-HT
         227       66     16  -0.834   -12.3443077562   -18.2577097133   -16.4452700170 # SOLV-66-TIP3-OH2-OT
         228       66      6   0.417   -12.8120976301   -17.8332163801   -17.1959023059 # SOLV-66-TIP3-H1-HT
         229       66      6   0.417   -11.8561097370   -18.9392758173   -16.9484797519 # SOLV-66-TIP3-H2-HT
         230       67     16  -0.834   -20.8713766401   -17.9107136786   -10.9478069295 # SOLV-67-TIP3-OH2-OT
         231       67      6   0.417   -20.9283263555   -17.4246132137   -10.1112620684 # SOLV-67-TIP3-H1-HT
         232       67      6   0.417   -21.2979219179   -18.7647223812   -10.7246752362 # SOLV-67-TIP3-H2-HT
         233       68     16  -0.834   -18.1052894861   -20.8772367242   -24.2203760000 # SOLV-68-TIP3-OH2-OT
         234       68      6   0.417   -18.2006047795   -21.0099392743   -23.2584213866 # SOLV-68-TIP3-H1-HT
         235       68      6   0.417   -18.4301147411   -19.9906052971   -24.3175786225 # SOLV-68-TIP3-H2-HT
         236       69     16  -0.834   -24.1807974347   -20.2813543970   -17.5874318076 # SOLV-69-TIP3-OH2-OT
         237       69      6   0.417   -23.9843449419   -20.3613729143   -16.6316465561 # SOLV-69-TIP3-H1-HT
         238       69      6   0.417   -23.3067633641   -20.4121196716   -17.9540816009 # SOLV-69-TIP3-H2-HT
         239       70     16  -0.834   -23.2080125250   -19.6033620775   -21.3760904601 # SOLV-70-TIP3-OH2-OT
         240       70      6   0.417   -22.6139666436   -19.0819932570   -21.9646025317 # SOLV-70-TIP3-H1-HT
         241       70      6   0.417   -23.8769362820   -19.9320502629   -21.9756375695 # SOLV-70-TIP3-H2-HT
         242       71     16  -0.834   -12.8249705973   -16.6687473398   -11.7818627870 # SOLV-71-TIP3-OH2-OT
         243       71      6   0.417   -12.4915129339   -17.2622742371   -12.4969426908 # SOLV-71-TIP3-H1-HT
         244       71      6   0.417   -13.5105758460   -17.2460794216   -11.3843644719 # SOLV-71-TIP3-H2-HT
         245       72     16  -0.834   -15.5074356571   -20.5518138461   -16.7793605404 # SOLV-72-TIP3-OH2-OT
         246       72      6   0.417   -16.4203910072   -20.5439556694   -16.4283214452 # SOLV-72-TIP3-H1-HT
         247       72      6   0.417   -15.0034590942   -20.9118372005   -16.0245005450 # SOLV-72-TIP3-H2-HT
         248       73     16  -0.834   -21.2370340568   -18.6750425994   -18.1220196179 # SOLV-73-TIP3-OH2-OT
         249       73      6   0.417   -21.9877907183   -18.2465879406   -18.6014997548 # SOLV-73-TIP3-H1-HT
         250       73      6   0.417   -21.0714030707   -19.4768616635   -18.6433279638 # SOLV-73-TIP3-H2-HT
         251       74     16  -0.834   -18.0732742734   -18.7823879391   -20.1954602739 # SOLV-74-TIP3-OH2-OT
         252       74      6   0.417   -17.1029384589   -18.8461953711   -20.0633050004 # SOLV-74-TIP3-H1-HT
         253       74      6   0.417   -18.1555884359   -18.3705175293   -21.0804158434 # SOLV-74-TIP3-H2-HT