11135
# CELL(abcABC):   47.46614    47.46614    47.46614    90.00000    90.00000    90.00000  Step:        5000  Bead:       0 positions{angstrom}  cell{angstrom}
       C -8.29425e+00 -4.44331e+00  6.26074e+00
       H -8.46659e+00 -3.59825e+00  6.93076e+00
       H -8.49638e+00 -5.44137e+00  6.72779e+00
       H -8.99939e+00 -4.27074e+00  5.39714e+00
       C -6.86714e+00 -4.41207e+00  5.97681e+00
       O -6.26419e+00 -5.48052e+00  5.94030e+00
       N -6.33466e+00 -3.18941e+00  5.72629e+00
       H -6.80555e+00 -2.33846e+00  5.91522e+00
       C -4.99599e+00 -2.99828e+00  5.17822e+00
       H -4.73053e+00 -3.71811e+00  4.49474e+00
       C -4.86965e+00 -1.60796e+00  4.54150e+00
       H -3.88043e+00 -1.53847e+00  4.15256e+00
       H -5.06613e+00 -8.24924e-01  5.24934e+00
       C -5.79688e+00 -1.53064e+00  3.36531e+00
       H -6.87880e+00 -1.48226e+00  3.66822e+00
       H -5.69379e+00 -2.49913e+00  2.81790e+00
       C -5.61892e+00 -3.24846e-01  2.57203e+00
       H -4.52645e+00 -2.38203e-01  2.38073e+00
       H -5.91034e+00  5.09847e-01  3.15531e+00
       C -6.34322e+00 -7.30477e-02  1.20640e+00
       H -6.57512e+00  1.00368e+00  9.96398e-01
       H -7.33607e+00 -6.39012e-01  1.20234e+00
       N -5.49942e+00 -5.31762e-01  1.09356e-01
       H -4.59058e+00 -2.32973e-02  2.16651e-02
       H -5.97461e+00 -4.18738e-01 -8.17768e-01
       H -5.18558e+00 -1.52064e+00  1.15742e-01
       C -3.99164e+00 -3.13662e+00  6.34898e+00
       O -3.88153e+00 -2.29775e+00  7.22489e+00
       N -3.19992e+00 -4.23800e+00  6.35905e+00
       H -3.34847e+00 -4.94853e+00  5.67405e+00
       H -2.56020e+00 -4.37841e+00  7.10681e+00
       O -1.06418e+01 -2.32724e+00 -2.36500e+01
       H -1.11291e+01 -3.02191e+00 -2.42065e+01
       H -1.09838e+01 -2.56784e+00 -2.27832e+01
       O -1.84055e+01 -1.23164e+00 -1.10744e+01
       H -1.88215e+01 -5.18471e-01 -1.15716e+01
       H -1.78858e+01 -6.62132e-01 -1.04496e+01
       O  1.82721e+01 -1.30598e+01 -1.01094e+01
       H  1.80386e+01 -1.21795e+01 -9.85488e+00
       H  1.77253e+01 -1.32281e+01 -1.08927e+01
       O -1.42383e+01 -1.12894e+01 -2.13638e+01
       H -1.43394e+01 -1.08228e+01 -2.22322e+01
       H -1.37035e+01 -1.20195e+01 -2.16461e+01
       O -1.70204e+01 -4.41452e+00 -1.63026e+01
       H -1.62782e+01 -5.06220e+00 -1.62584e+01
       H -1.74616e+01 -4.73531e+00 -1.70785e+01
       O  1.88667e+01 -2.12877e+01  2.01473e+01
       H  1.81294e+01 -2.07125e+01  1.98520e+01
       H  1.83674e+01 -2.21104e+01  2.02503e+01
       O -1.21646e+01 -8.83601e+00 -1.05431e+01
       H -1.26931e+01 -8.60230e+00 -1.13246e+01
       H -1.13815e+01 -9.31597e+00 -1.09587e+01
       O  2.21003e+01 -2.01560e+01 -8.76109e+00
       H  2.18992e+01 -1.98006e+01 -7.84446e+00
       H  2.12492e+01 -2.03687e+01 -9.08908e+00
       O -1.09657e+01 -2.20350e+01 -2.55857e+00
       H -1.15655e+01 -2.12791e+01 -2.68099e+00
       H -1.12761e+01 -2.24337e+01 -1.68610e+00
       O  1.01289e+01 -2.03152e+01 -1.43915e+01
       H  1.08513e+01 -2.04944e+01 -1.37652e+01
       H  1.01062e+01 -1.93571e+01 -1.43591e+01
       O -2.05946e+01 -1.13152e+01 -2.00759e+00
       H -1.99984e+01 -1.12075e+01 -1.26768e+00
       H -2.10332e+01 -1.04325e+01 -1.97210e+00
       O  2.50480e+00 -2.28040e+01 -7.39543e+00
       H  2.11866e+00 -2.19151e+01 -7.52147e+00
       H  2.00929e+00 -2.30435e+01 -6.56546e+00
       O  3.06435e+00  1.64976e+01 -1.00135e+01
       H  3.16951e+00  1.74626e+01 -1.01726e+01
       H  2.14535e+00  1.63340e+01 -1.03656e+01
       O -2.51752e+01 -9.97507e+00 -1.32061e+01
       H -2.58107e+01 -1.06480e+01 -1.35305e+01
       H -2.50590e+01 -1.03292e+01 -1.23155e+01
       O -1.00625e+01 -1.25213e+01 -1.57826e+01
       H -9.63785e+00 -1.17105e+01 -1.62079e+01
       H -9.24383e+00 -1.30619e+01 -1.57788e+01
       O -4.99322e+00 -1.38064e+01 -1.07861e+01
       H -4.51535e+00 -1.29504e+01 -1.06299e+01
       H -5.73199e+00 -1.37880e+01 -1.00848e+01
       O -1.16867e+01 -1.86553e+01 -7.28334e+00
       H -1.24054e+01 -1.84810e+01 -6.63878e+00
       H -1.15630e+01 -1.78234e+01 -7.73204e+00
       O  2.28820e+00 -1.01395e+01 -1.87741e+01
       H  1.82758e+00 -9.62958e+00 -1.81262e+01
       H  2.35336e+00 -9.44595e+00 -1.94946e+01
       O -1.08529e+01 -2.20505e+01 -1.25753e+01
       H -1.00563e+01 -2.19074e+01 -1.31846e+01
       H -1.06611e+01 -2.12865e+01 -1.19906e+01
       O -2.05010e+00  2.38704e+01 -1.12025e+01
       H -1.91455e+00  2.38258e+01 -1.21770e+01
       H -1.15711e+00  2.40354e+01 -1.08624e+01
       O -2.38716e+01 -9.20755e+00 -6.61900e+00
       H -2.36678e+01 -9.10673e+00 -7.55583e+00
       H -2.37219e+01 -8.22182e+00 -6.39142e+00
       O -2.12932e+01 -5.71609e+00 -1.68418e+01
       H -2.15987e+01 -5.10020e+00 -1.61640e+01
       H -2.13459e+01 -6.58882e+00 -1.64517e+01
       O  1.80339e+01 -2.23362e+01 -2.35167e+01
       H  1.71597e+01 -2.28529e+01 -2.33467e+01
       H  1.84066e+01 -2.23187e+01 -2.26008e+01
       O -1.79408e+01 -1.46779e+01 -1.46679e+01
       H -1.84363e+01 -1.55313e+01 -1.46811e+01
       H -1.84326e+01 -1.40983e+01 -1.52652e+01
       O -6.26266e+00 -2.07143e+01 -1.55432e+01
       H -6.59383e+00 -2.03295e+01 -1.64158e+01
       H -5.47241e+00 -2.01128e+01 -1.55117e+01
       O -1.01477e+01 -8.09563e+00  2.36164e+01
       H -9.35013e+00 -8.47616e+00  2.41535e+01
       H -9.67325e+00 -7.75995e+00  2.28745e+01
       O -6.39506e+00 -2.45918e+01 -2.08171e+01
       H -5.93659e+00 -2.50467e+01 -2.01353e+01
       H -6.51375e+00 -2.37476e+01 -2.04721e+01
       O -5.58320e+00 -6.44226e+00  1.68229e+01
       H -5.10258e+00 -7.00019e+00  1.62473e+01
       H -5.00170e+00 -5.61129e+00  1.68206e+01
       O -1.01948e+01 -9.30564e+00 -1.53428e+00
       H -1.07185e+01 -8.58042e+00 -1.72896e+00
       H -9.70031e+00 -9.53740e+00 -2.30638e+00
       O -2.16743e+01 -7.86354e+00  2.12535e+01
       H -2.12201e+01 -8.42277e+00  2.05500e+01
       H -2.25930e+01 -8.21960e+00  2.11134e+01
       O -2.03418e+01 -1.12436e+01 -1.67778e+01
       H -2.09389e+01 -1.13309e+01 -1.75648e+01
       H -1.96120e+01 -1.08268e+01 -1.72567e+01
       O  6.64931e+00 -1.31941e+01 -1.90859e+01
       H  7.47075e+00 -1.31234e+01 -1.86309e+01
       H  6.20047e+00 -1.27405e+01 -1.83110e+01
       O  1.13227e+00 -1.29842e+01 -2.41436e+01
       H  8.66758e-01 -1.27104e+01 -2.50383e+01
       H  1.92049e+00 -1.24535e+01 -2.39258e+01
       O -1.10207e+01 -2.04126e+01  3.18562e-01
       H -1.01152e+01 -2.06879e+01  1.39815e-01
       H -1.07941e+01 -1.94735e+01  5.38663e-01
       O -1.28837e+01 -1.65439e+01 -1.33248e+01
       H -1.34489e+01 -1.57963e+01 -1.34262e+01
       H -1.20695e+01 -1.60932e+01 -1.34525e+01
       O -2.01623e+01 -1.77598e+01  2.28683e+01
       H -1.93100e+01 -1.80020e+01  2.32543e+01
       H -2.04465e+01 -1.69632e+01  2.33887e+01
       O -1.51439e+01 -2.51532e+01  7.03622e-01
       H -1.41689e+01 -2.51210e+01  8.66595e-01
       H -1.54186e+01 -2.42473e+01  6.94619e-01
       O  1.97022e+00 -8.09008e+00 -1.67147e+01
       H  2.71132e+00 -7.75914e+00 -1.71837e+01
       H  1.40551e+00 -7.34083e+00 -1.67060e+01
       O -1.18111e+01 -3.59902e+00 -1.09941e+01
       H -1.14527e+01 -3.60287e+00 -1.19755e+01
       H -1.14517e+01 -2.76309e+00 -1.06216e+01
       O  4.12537e+00 -1.67567e+01 -1.69987e+01
       H  3.31634e+00 -1.72930e+01 -1.68371e+01
       H  3.93891e+00 -1.65705e+01 -1.79171e+01
       O  1.84550e+01 -1.83737e+01 -9.00414e+00
       H  1.90335e+01 -1.76504e+01 -8.84817e+00
       H  1.77984e+01 -1.79131e+01 -9.49727e+00
       O -1.36493e+01 -6.53452e+00 -2.40505e+01
       H -1.31839e+01 -7.33114e+00  2.31662e+01
       H -1.45494e+01 -6.89113e+00 -2.40937e+01
       O  1.55694e+01 -1.96480e+01 -9.81638e+00
       H  1.61221e+01 -2.01132e+01 -1.04293e+01
       H  1.54065e+01 -2.02926e+01 -9.08433e+00
       O -1.64760e+01 -9.87344e+00 -2.34466e+01
       H -1.61697e+01 -1.06166e+01 -2.39370e+01
       H -1.72748e+01 -9.54065e+00 -2.39445e+01
       O -2.19557e+01 -1.50681e+01 -1.84441e+01
       H -2.15703e+01 -1.42918e+01 -1.89518e+01
       H -2.25472e+01 -1.54545e+01 -1.91005e+01
       O -9.07774e+00 -1.49030e+01  1.50442e+01
       H -8.89691e+00 -1.57940e+01  1.53117e+01
       H -9.97431e+00 -1.50349e+01  1.46386e+01
       O -1.68116e+01 -2.35719e+01  3.59695e+00
       H -1.70710e+01 -2.45273e+01  3.57154e+00
       H -1.64158e+01 -2.34669e+01  2.71706e+00
       O  1.62692e+01 -5.25716e+00 -7.03495e+00
       H  1.59447e+01 -5.30070e+00 -6.12810e+00
       H  1.69480e+01 -4.60799e+00 -7.03189e+00
       O  1.19003e+01 -1.22017e+01 -5.74967e+00
       H  1.12686e+01 -1.27282e+01 -6.17734e+00
       H  1.15617e+01 -1.12987e+01 -5.94880e+00
       O -1.66068e+01  4.15956e+00 -1.25380e+01
       H -1.65552e+01  5.17307e+00 -1.25778e+01
       H -1.59144e+01  3.98014e+00 -1.18389e+01
       O -1.33222e+01 -1.92927e+00 -2.06801e+01
       H -1.25697e+01 -1.27840e+00 -2.07311e+01
       H -1.28540e+01 -2.68653e+00 -2.03302e+01
       O -8.74807e+00 -6.62883e+00 -8.01518e+00
       H -8.75324e+00 -5.65829e+00 -7.80597e+00
       H -8.91959e+00 -6.56962e+00 -8.96412e+00
       O -9.59749e+00 -5.87878e+00 -2.14654e+01
       H -9.30447e+00 -6.76459e+00 -2.12901e+01
       H -9.30871e+00 -5.82676e+00 -2.23566e+01
       O -9.40788e+00 -3.41684e+00 -7.80252e+00
       H -1.00147e+01 -2.80873e+00 -8.31944e+00
       H -9.92635e+00 -3.90480e+00 -7.14004e+00
       O  3.39038e+00 -8.51993e+00 -1.38168e+01
       H  3.86140e+00 -8.29452e+00 -1.29772e+01
       H  2.77254e+00 -7.77023e+00 -1.38251e+01
       O -1.93901e+01 -1.35474e+01 -3.15642e+00
       H -2.01199e+01 -1.29638e+01 -2.92532e+00
       H -1.88223e+01 -1.33027e+01 -2.44983e+00
       O -9.39505e+00 -1.28336e+01 -4.45842e+00
       H -8.82256e+00 -1.30082e+01 -3.67067e+00
       H -9.04696e+00 -1.20515e+01 -4.89026e+00
       O -7.77119e+00 -1.39741e+01 -1.55420e+01
       H -7.09069e+00 -1.40849e+01 -1.48655e+01
       H -7.20289e+00 -1.36477e+01 -1.63412e+01
       O -6.73485e+00 -1.72188e+01 -1.14281e+01
       H -7.27773e+00 -1.64148e+01 -1.14575e+01
       H -6.91921e+00 -1.75381e+01 -1.23289e+01
       O -3.41076e+00  2.17700e+01  8.46492e+00
       H -3.44580e+00  2.08978e+01  8.00035e+00
       H -4.31406e+00  2.20558e+01  8.52702e+00
       O -5.73485e+00  2.06212e+00 -2.00572e+01
       H -5.48231e+00  2.64530e+00 -1.93824e+01
       H -5.56675e+00  1.18125e+00 -1.97593e+01
       O -8.32342e+00  2.33111e+01 -1.20197e+00
       H -8.76134e+00  2.41527e+01 -1.32123e+00
       H -8.87356e+00  2.27880e+01 -1.90146e+00
       O -1.74092e+01 -1.61644e+01 -1.78294e+01
       H -1.80416e+01 -1.64630e+01 -1.71068e+01
       H -1.78483e+01 -1.53471e+01 -1.81448e+01
       O  9.36927e-02 -1.73523e+01 -5.45432e+00
       H -4.88681e-01 -1.81276e+01 -5.59258e+00
       H -5.86126e-01 -1.66625e+01 -5.55367e+00
       O -2.42788e+00 -1.65864e+01  4.37455e+00
       H -2.33245e+00 -1.75085e+01  3.95713e+00
       H -3.01658e+00 -1.62473e+01  3.64498e+00
       O -1.19202e+01 -4.37637e+00  2.25188e+01
       H -1.25519e+01 -4.12632e+00  2.18207e+01
       H -1.22777e+01 -5.17670e+00  2.29033e+01
       O -1.89193e+01 -1.45784e+01 -9.19416e+00
       H -1.83166e+01 -1.38428e+01 -9.37911e+00
       H -1.84302e+01 -1.51563e+01 -8.58453e+00
       O -2.94406e+00 -2.10363e+01 -8.27130e+00
       H -3.65425e+00 -2.05449e+01 -7.77176e+00
       H -3.40613e+00 -2.19225e+01 -8.31176e+00
       O -1.56405e+01 -2.31883e+01 -1.24328e+01
       H -1.65105e+01 -2.35758e+01 -1.23675e+01
       H -1.50988e+01 -2.36523e+01 -1.17110e+01
       O -2.04992e+01 -2.20918e+01  2.03088e+01
       H -1.98837e+01 -2.25935e+01  1.98600e+01
       H -2.00663e+01 -2.16174e+01  2.10706e+01
       O  2.13611e+01  2.24530e+01  2.30470e+01
       H  2.03950e+01  2.21222e+01  2.30192e+01
       H  2.13778e+01  2.30049e+01  2.22493e+01
       O -1.08873e+01 -2.05252e+01 -5.41596e+00
       H -1.14646e+01 -2.12427e+01 -5.10780e+00
       H -1.13167e+01 -2.00694e+01 -6.15590e+00
       O -1.36838e+01 -7.16059e+00 -1.29023e+01
       H -1.43109e+01 -6.73818e+00 -1.23040e+01
       H -1.34930e+01 -6.55204e+00 -1.36066e+01
       O -1.51524e+01 -1.20062e+01  1.05604e+01
       H -1.52518e+01 -1.10246e+01  1.04693e+01
       H -1.57209e+01 -1.23123e+01  9.86030e+00
       O -1.82492e+01 -1.95764e+01 -2.29429e+01
       H -1.80711e+01 -2.03845e+01 -2.24033e+01
       H -1.82948e+01 -1.88974e+01 -2.23176e+01
       O -1.94648e+01 -1.82205e+01 -2.07718e+01
       H -2.02674e+01 -1.82423e+01 -2.13002e+01
       H -1.95673e+01 -1.88662e+01 -2.00458e+01
       O -6.08495e+00 -5.66642e+00 -1.48618e+01
       H -5.94906e+00 -4.78955e+00 -1.52470e+01
       H -6.51600e+00 -5.46627e+00 -1.39983e+01
       O -1.67186e+01 -1.84988e+01 -1.30262e+01
       H -1.70710e+01 -1.78320e+01 -1.23578e+01
       H -1.65877e+01 -1.93127e+01 -1.24394e+01
       O -1.87634e+01 -1.13633e+01 -1.27297e+01
       H -1.85741e+01 -1.08697e+01 -1.34973e+01
       H -1.79283e+01 -1.11758e+01 -1.22499e+01
       O -1.49631e+01 -1.65688e+01 -1.03788e+01
       H -1.43524e+01 -1.72942e+01 -1.07062e+01
       H -1.48106e+01 -1.64763e+01 -9.39029e+00
       O -1.08831e+01 -1.45755e+01 -1.43038e+01
       H -1.07160e+01 -1.39768e+01 -1.50395e+01
       H -1.14550e+01 -1.40098e+01 -1.37113e+01
       O  2.11791e+01 -1.25504e+01 -1.38043e+01
       H  2.20672e+01 -1.29935e+01 -1.37438e+01
       H  2.09550e+01 -1.27448e+01 -1.29228e+01
       O -2.58176e+00 -1.70351e+01 -4.63330e+00
       H -2.52974e+00 -1.79057e+01 -5.00246e+00
       H -2.32471e+00 -1.65230e+01 -5.47877e+00
       O -2.16328e+01 -1.99055e+01  1.70249e+01
       H -2.20432e+01 -1.93033e+01  1.64014e+01
       H -2.15680e+01 -1.94119e+01  1.79090e+01
       O -7.37394e+00 -1.21285e+01 -2.68028e+00
       H -6.78079e+00 -1.26455e+01 -2.06913e+00
       H -6.92087e+00 -1.12301e+01 -2.77194e+00
       O -1.62062e+01 -5.71468e-01 -1.80841e+01
       H -1.62903e+01 -1.17760e+00 -1.87888e+01
       H -1.59657e+01 -1.12176e+00 -1.73546e+01
       O  2.36547e+01 -2.22221e+01 -4.25777e+00
       H  2.38658e+01 -2.27523e+01 -3.49826e+00
       H  2.30825e+01 -2.15386e+01 -3.86531e+00
       O  9.08933e+00 -6.20036e+00 -1.95122e+01
       H  8.87617e+00 -6.43630e+00 -2.04164e+01
       H  9.20023e+00 -5.23640e+00 -1.95773e+01
       O -9.14805e-01 -2.30107e+01  2.93081e+00
       H -1.20389e+00 -2.34480e+01  3.71071e+00
       H -1.62255e+00 -2.24002e+01  2.67906e+00
       O -2.09012e+01 -1.40541e+01 -2.10409e+01
       H -2.02956e+01 -1.36042e+01 -2.17081e+01
       H -2.16699e+01 -1.35015e+01 -2.13153e+01
       O -1.32395e+00 -1.14924e+01 -1.00211e+01
       H -3.08994e-01 -1.15847e+01 -1.00780e+01
       H -1.25256e+00 -1.06963e+01 -9.48080e+00
       O  6.52455e+00 -1.06556e+01 -7.55459e+00
       H  7.00107e+00 -1.03017e+01 -8.35788e+00
       H  6.70913e+00 -1.16129e+01 -7.62207e+00
       O -6.43399e+00 -9.54616e+00 -3.27776e+00
       H -5.63810e+00 -9.48922e+00 -2.73809e+00
       H -6.36821e+00 -8.62510e+00 -3.68381e+00
       O -1.54005e+01  8.99461e+00 -8.59868e+00
       H -1.46378e+01  9.42715e+00 -9.04088e+00
       H -1.55007e+01  8.18289e+00 -9.17332e+00
       O -5.61800e+00 -1.09601e+01 -1.97492e+01
       H -6.50170e+00 -1.05791e+01 -1.97265e+01
       H -5.25119e+00 -1.03480e+01 -2.03869e+01
       O -2.01639e+01 -1.20081e+01  2.20702e+01
       H -1.96152e+01 -1.24374e+01  2.14083e+01
       H -2.02360e+01 -1.26815e+01  2.27785e+01
       O  2.06908e+01 -1.35122e+01  2.31312e+01
       H  1.99483e+01 -1.36349e+01  2.36889e+01
       H  2.12255e+01 -1.29020e+01  2.37358e+01
       O -1.05981e+01 -1.01920e+01 -1.25623e+01
       H -9.65166e+00 -1.00923e+01 -1.26541e+01
       H -1.08691e+01 -1.06592e+01 -1.33451e+01
       O -1.85476e+01 -1.02807e+01 -2.12098e+01
       H -1.76403e+01 -1.02497e+01 -2.16109e+01
       H -1.88996e+01 -9.57652e+00 -2.17592e+01
       O -2.19291e+01 -6.76037e+00  2.38333e+01
       H -2.18656e+01 -6.87782e+00  2.28655e+01
       H -2.28860e+01 -6.79567e+00  2.39482e+01
       O -8.09732e+00 -9.65302e+00 -2.29221e+01
       H -8.23029e+00 -1.04259e+01 -2.34852e+01
       H -7.13708e+00 -9.46678e+00 -2.29994e+01
       O -9.23565e+00 -8.54854e+00 -2.05191e+01
       H -8.71040e+00 -8.93435e+00 -2.12804e+01
       H -1.01148e+01 -8.97182e+00 -2.07598e+01
       O -8.40882e+00  1.20604e+01 -1.92980e+01
       H -8.63025e+00  1.29939e+01 -1.90401e+01
       H -8.08778e+00  1.16008e+01 -1.84635e+01
       O -1.53332e+01 -2.09591e+00 -1.30897e+01
       H -1.59737e+01 -2.75412e+00 -1.27606e+01
       H -1.52290e+01 -1.43810e+00 -1.23503e+01
       O -7.33245e+00 -1.42083e+01 -6.10723e+00
       H -7.10855e+00 -1.49570e+01 -5.47394e+00
       H -8.02461e+00 -1.38141e+01 -5.62586e+00
       O -3.78608e+00 -1.59914e+01 -2.12610e+01
       H -3.35128e+00 -1.57673e+01 -2.20682e+01
       H -4.23772e+00 -1.51052e+01 -2.10481e+01
       O  1.41951e+01 -1.17342e+00 -1.35943e+01
       H  1.36028e+01 -4.72404e-01 -1.31176e+01
       H  1.47572e+01 -6.02829e-01 -1.40812e+01
       O -1.92166e+01 -3.08325e+00  2.21705e+01
       H -1.87973e+01 -2.41523e+00  2.27868e+01
       H -1.92807e+01 -3.89456e+00  2.27533e+01
       O  2.22814e+01 -1.90390e+01  1.57847e+01
       H  2.25378e+01 -1.91243e+01  1.67074e+01
       H  2.20252e+01 -1.99930e+01  1.55528e+01
       O -2.18559e+01 -1.07535e+01  1.06261e+01
       H -2.25587e+01 -1.13886e+01  1.04822e+01
       H -2.23789e+01 -9.94112e+00  1.08318e+01
       O -1.76598e+01  2.26260e+01 -8.21836e+00
       H -1.82486e+01  2.34223e+01 -8.09899e+00
       H -1.72161e+01  2.25872e+01 -7.32273e+00
       O -1.36520e+01 -1.42677e+01  1.66194e+01
       H -1.44007e+01 -1.47306e+01  1.70744e+01
       H -1.39404e+01 -1.33035e+01  1.66925e+01
       O  1.98813e+01 -1.53680e+01  1.20445e+01
       H  1.96275e+01 -1.45504e+01  1.24125e+01
       H  1.99356e+01 -1.52399e+01  1.10549e+01
       O  1.61279e+01 -2.08016e+01 -2.08887e+01
       H  1.59922e+01 -2.08259e+01 -2.18698e+01
       H  1.68743e+01 -2.14248e+01 -2.08968e+01
       O -9.79559e+00 -1.57241e+01 -5.17768e+00
       H -1.03726e+01 -1.65570e+01 -5.09489e+00
       H -1.03084e+01 -1.49863e+01 -4.72017e+00
       O  1.95829e+00 -1.63636e+01 -7.54420e+00
       H  1.52572e+00 -1.65720e+01 -6.72057e+00
       H  2.42048e+00 -1.72117e+01 -7.63975e+00
       O -1.21227e+01  2.12449e+01 -2.34463e+01
       H -1.16410e+01  2.14178e+01  2.48462e+01
       H -1.15688e+01  2.15766e+01  2.32481e+01
       O  8.23104e+00 -1.42310e+01  2.49334e+01
       H  7.82440e+00 -1.45652e+01 -2.16793e+01
       H  7.57110e+00 -1.34924e+01 -2.27535e+01
       O -6.17419e+00  1.42518e+01 -3.14337e+00
       H -5.98847e+00  1.45546e+01 -4.04929e+00
       H -6.51107e+00  1.33541e+01 -3.22120e+00
       O -1.00344e+01  2.24378e+01  2.27480e+01
       H -9.57568e+00  2.17252e+01  2.31968e+01
       H -1.00140e+01  2.31249e+01  2.34412e+01
       O  2.22166e+01 -9.85109e-01  2.48461e+01
       H  2.25680e+01 -1.90936e+00  2.47270e+01
       H  2.30312e+01 -6.33351e-01  2.52393e+01
       O  2.06781e+01 -8.72268e+00 -1.55572e+01
       H  2.13655e+01 -8.75341e+00 -1.48906e+01
       H  1.98530e+01 -8.63949e+00 -1.49975e+01
       O -1.81370e+00 -4.13238e+00 -2.21050e+01
       H -2.11943e+00 -3.21288e+00 -2.21549e+01
       H -2.60308e+00 -4.61773e+00 -2.24788e+01
       O -1.17188e+01 -2.39746e+01 -8.12519e+00
       H -1.26123e+01  2.35651e+01 -8.51678e+00
       H -1.16298e+01 -2.30213e+01 -7.99586e+00
       O  2.11108e+01 -2.59628e+00  2.08436e+01
       H  2.12190e+01 -2.35009e+00  1.99235e+01
       H  2.20896e+01 -2.44719e+00  2.10289e+01
       O -2.66175e+01  2.52890e+00 -9.16002e-01
       H -2.59584e+01  1.91255e+00 -1.27558e+00
       H -2.63153e+01  2.57143e+00  2.66020e-02
       O  1.67441e+01 -4.08717e+00 -1.37354e+01
       H  1.67879e+01 -3.25067e+00 -1.43054e+01
       H  1.72875e+01 -4.73580e+00 -1.42425e+01
       O -1.15222e+01 -1.35547e+01  2.21995e+01
       H -1.11178e+01 -1.30920e+01  2.14406e+01
       H -1.21419e+01 -1.41668e+01  2.17578e+01
       O -6.71111e+00 -1.06363e+01 -7.94290e+00
       H -6.25170e+00 -1.09287e+01 -7.15185e+00
       H -5.92752e+00 -1.03190e+01 -8.45561e+00
       O -2.36862e+00 -1.54146e+01 -1.46718e+01
       H -2.72817e+00 -1.54764e+01 -1.37213e+01
       H -3.01442e+00 -1.48172e+01 -1.51445e+01
       O -1.56453e+01 -6.13834e+00 -1.11910e+01
       H -1.60072e+01 -5.31187e+00 -1.15058e+01
       H -1.57872e+01 -5.96539e+00 -1.02207e+01
       O -1.91758e+01 -1.59381e+01  2.09584e+01
       H -1.99298e+01 -1.64662e+01  2.13165e+01
       H -1.84504e+01 -1.64826e+01  2.13154e+01
       O  4.67685e+00 -2.34607e+01 -5.25674e+00
       H  5.23150e+00 -2.33966e+01 -6.08375e+00
       H  4.32016e+00 -2.25243e+01 -5.17379e+00
       O -9.77003e+00 -1.10647e+01  1.71961e+01
       H -1.04524e+01 -1.04501e+01  1.71795e+01
       H -9.66440e+00 -1.11578e+01  1.62374e+01
       O  1.39083e+00 -1.51025e+00 -1.11648e+01
       H  1.84544e+00 -2.29170e+00 -1.16345e+01
       H  1.83261e+00 -1.27910e+00 -1.03098e+01
       O -1.24410e+01 -6.33766e+00 -1.67796e+01
       H -1.33683e+01 -6.56266e+00 -1.69568e+01
       H -1.25094e+01 -5.85039e+00 -1.59377e+01
       O  2.05221e+01 -1.30224e+01 -1.81729e+01
       H  2.13653e+01 -1.33178e+01 -1.77538e+01
       H  1.98364e+01 -1.30685e+01 -1.74697e+01
       O -1.34899e+01 -1.19514e+01 -3.31520e+00
       H -1.42095e+01 -1.23176e+01 -2.75889e+00
       H -1.30583e+01 -1.28083e+01 -3.57880e+00
       O -1.69271e+01 -1.36783e+01 -2.08104e+01
       H -1.66899e+01 -1.30638e+01 -2.00188e+01
       H -1.75118e+01 -1.43050e+01 -2.03402e+01
       O -6.45987e+00 -2.20178e+01 -1.95225e+01
       H -7.06314e+00 -2.21683e+01 -1.87840e+01
       H -5.58849e+00 -2.20276e+01 -1.91260e+01
       O  1.86936e+01 -1.53519e+01 -1.49799e+01
       H  1.91619e+01 -1.55649e+01 -1.40952e+01
       H  1.82205e+01 -1.62241e+01 -1.50633e+01
       O  2.16029e+01  2.01722e+01  5.31891e+00
       H  2.10896e+01  2.03178e+01  4.45194e+00
       H  2.16451e+01  2.11211e+01  5.57776e+00
       O -1.07215e+01 -7.27986e+00 -1.44102e+01
       H -1.03084e+01 -8.05317e+00 -1.39838e+01
       H -1.09389e+01 -6.73133e+00 -1.36085e+01
       O  2.72444e+00 -2.42205e+01 -3.42039e+00
       H  3.46546e+00  2.34535e+01 -4.00284e+00
       H  2.17370e+00 -2.35137e+01 -3.73660e+00
       O -6.75358e+00 -8.32184e+00 -1.96068e+01
       H -6.70811e+00 -7.94191e+00 -1.87275e+01
       H -7.69183e+00 -8.33160e+00 -1.96793e+01
       O -1.78708e+01 -2.03979e+01  8.49067e+00
       H -1.72666e+01 -1.97330e+01  8.06797e+00
       H -1.73949e+01 -2.04836e+01  9.28812e+00
       O -4.10762e+00  1.50598e+01 -1.01141e+01
       H -4.97996e+00  1.55589e+01 -1.02083e+01
       H -4.18886e+00  1.45416e+01 -1.09054e+01
       O -1.47595e+01 -1.37019e+01 -6.49833e+00
       H -1.53608e+01 -1.28970e+01 -6.57226e+00
       H -1.38771e+01 -1.33204e+01 -6.34017e+00
       O  2.31069e+01 -1.51769e+01  7.08720e+00
       H  2.32670e+01 -1.51094e+01  8.07078e+00
       H  2.39411e+01 -1.56253e+01  6.79501e+00
       O -8.53819e+00 -2.08162e+01 -5.44094e-01
       H -8.30712e+00 -2.05357e+01 -1.43101e+00
       H -7.71702e+00 -2.08139e+01 -7.14964e-02
       O  1.81103e+01 -2.22010e+01 -8.31324e+00
       H  1.75007e+01 -2.19181e+01 -7.70978e+00
       H  1.76475e+01  2.44729e+01 -8.72509e+00
       O -8.63996e+00  1.93109e+01 -4.29755e-01
       H -8.35136e+00  1.83781e+01 -7.19509e-01
       H -8.57785e+00  1.98509e+01 -1.21031e+00
       O -2.76469e+00 -7.58456e+00 -2.08577e+01
       H -2.79942e+00 -8.46202e+00 -2.04381e+01
       H -2.23545e+00 -7.69881e+00 -2.16862e+01
       O  2.28462e+01 -1.52236e+01  2.31097e+01
       H  2.20005e+01 -1.48843e+01  2.29046e+01
       H  2.29293e+01 -1.58656e+01  2.24083e+01
       O  1.64815e+01  7.68262e+00 -7.07101e-01
       H  1.71477e+01  8.41700e+00 -7.41271e-01
       H  1.56050e+01  7.99833e+00 -1.07114e+00
       O  3.79055e+00 -6.74384e+00 -1.80215e+01
       H  3.66168e+00 -5.78090e+00 -1.78371e+01
       H  4.69644e+00 -6.54222e+00 -1.82257e+01
       O -9.25914e+00  2.50467e+01 -7.37180e+00
       H -9.94116e+00  2.56974e+01 -7.72510e+00
       H -9.48862e+00  2.50328e+01 -6.42785e+00
       O -5.01765e+00 -1.69972e+01 -1.48539e+01
       H -4.92465e+00 -1.61624e+01 -1.43642e+01
       H -4.69950e+00 -1.76539e+01 -1.42161e+01
       O  5.38103e-01 -3.89237e+00 -1.75846e+01
       H  1.47712e+00 -4.04586e+00 -1.78355e+01
       H  4.13123e-01 -4.81691e+00 -1.72984e+01
       O -1.22755e+00 -1.63596e+01  1.41572e+01
       H -1.44433e+00 -1.72748e+01  1.42962e+01
       H -1.98876e+00 -1.61473e+01  1.35932e+01
       O -8.93981e+00 -1.47318e+01 -1.86679e+01
       H -8.00415e+00 -1.44960e+01 -1.86254e+01
       H -9.28343e+00 -1.40056e+01 -1.91691e+01
       O  6.43653e+00 -5.82677e-01 -2.41536e+01
       H  5.75276e+00  1.62176e-01 -2.40144e+01
       H  6.15130e+00 -7.67682e-01 -2.50582e+01
       O -8.53835e+00 -8.79790e+00  2.02007e+01
       H -9.44514e+00 -8.53537e+00  2.01708e+01
       H -8.21440e+00 -8.59480e+00  1.92730e+01
       O -1.24909e+01 -1.32697e+01 -1.26420e+01
       H -1.30446e+01 -1.27965e+01 -1.32331e+01
       H -1.30981e+01 -1.34083e+01 -1.18686e+01
       O -2.05521e+01 -1.11180e+00  2.05881e+01
       H -2.11155e+01 -1.73393e+00  2.01026e+01
       H -2.01429e+01 -1.74679e+00  2.11744e+01
       O  1.39032e+01 -4.08109e+00 -7.45787e+00
       H  1.46640e+01 -4.62985e+00 -7.40781e+00
       H  1.43340e+01 -3.23572e+00 -7.79780e+00
       O -9.43826e+00 -4.94036e+00 -1.37952e+00
       H -8.52814e+00 -5.32072e+00 -1.58410e+00
       H -9.15870e+00 -4.29232e+00 -6.83274e-01
       O -1.04198e+01  1.60620e+00 -2.51001e+01
       H -1.06544e+01  2.56594e+00 -2.53497e+01
       H -1.11748e+01  1.41983e+00 -2.44474e+01
       O -5.85708e+00 -2.06232e+01 -1.22712e+01
       H -6.31010e+00 -2.03466e+01 -1.30828e+01
       H -4.97080e+00 -2.03120e+01 -1.24251e+01
       O -5.33291e-01 -1.85963e+01 -2.09782e+01
       H -7.15799e-01 -1.95572e+01 -2.08719e+01
       H -1.35139e+00 -1.84186e+01 -2.15260e+01
       O -3.45571e+00 -9.73635e+00 -6.04997e+00
       H -3.72794e+00 -1.02683e+01 -5.27610e+00
       H -3.72029e+00 -8.80782e+00 -5.86411e+00
       O -9.21891e+00  1.85848e+01 -7.04835e+00
       H -8.50091e+00  1.87061e+01 -7.57531e+00
       H -1.00126e+01  1.88484e+01 -7.55190e+00
       O -1.38483e+00 -1.68999e+01 -2.27179e+00
       H -8.56088e-01 -1.77218e+01 -2.19136e+00
       H -1.68787e+00 -1.69242e+01 -3.19193e+00
       O -1.50870e+00  1.78526e+01 -1.24752e+01
       H -1.98943e+00  1.79787e+01 -1.32874e+01
       H -7.07746e-01  1.84442e+01 -1.25581e+01
       O -8.87595e+00 -1.04319e+01 -1.70766e+01
       H -9.41841e+00 -9.69912e+00 -1.73405e+01
       H -8.19126e+00 -9.98937e+00 -1.66054e+01
       O -1.34579e+01 -2.12877e+01 -5.93593e+00
       H -1.38244e+01 -2.16399e+01 -5.13811e+00
       H -1.39674e+01 -2.04636e+01 -5.94011e+00
       O -1.47515e+01 -1.75631e+01 -2.14947e+01
       H -1.45935e+01 -1.65438e+01 -2.16375e+01
       H -1.56754e+01 -1.75934e+01 -2.10904e+01
       O  2.16904e+00  2.24545e+01 -9.93383e+00
       H  2.83507e+00  2.30784e+01 -9.66638e+00
       H  1.47994e+00  2.28657e+01 -9.40502e+00
       O -1.08820e+01  2.21130e+01 -2.13274e+01
       H -1.07322e+01  2.25459e+01 -2.03996e+01
       H -1.05137e+01  2.28906e+01 -2.19184e+01
       O  1.97765e+01 -1.49925e+01  1.84823e+01
       H  1.90890e+01 -1.45848e+01  1.79740e+01
       H  1.99680e+01 -1.42053e+01  1.90270e+01
       O -6.64420e+00 -7.41832e+00 -1.69372e+01
       H -6.08958e+00 -6.94852e+00 -1.63162e+01
       H -7.37629e+00 -6.84780e+00 -1.68286e+01
       O  1.36350e+01  2.34033e+01 -7.29550e+00
       H  1.32967e+01  2.30290e+01 -6.46586e+00
       H  1.39073e+01  2.25808e+01 -7.66014e+00
       O -2.40009e+01 -8.16090e+00 -1.47855e+01
       H -2.41468e+01 -8.89279e+00 -1.41869e+01
       H -2.43818e+01 -7.43429e+00 -1.42123e+01
       O -2.28041e+01 -7.11557e-01 -2.83139e+00
       H -2.25080e+01 -1.55261e+00 -2.27086e+00
       H -2.31366e+01 -1.05915e+00 -3.70655e+00
       O -8.92331e+00  5.16549e-01 -5.81183e+00
       H -8.65626e+00  1.30515e+00 -6.38951e+00
       H -8.89277e+00 -1.55036e-01 -6.48499e+00
       O -1.21695e+01  6.60322e+00  1.98093e+01
       H -1.25285e+01  5.85099e+00  1.92584e+01
       H -1.20652e+01  7.32708e+00  1.91467e+01
       O  3.27791e+00  2.29319e+01 -1.25376e+01
       H  3.49645e+00 -2.37269e+01 -1.20010e+01
       H  3.02473e+00  2.23774e+01 -1.17433e+01
       O -2.04117e+01 -1.35742e+01 -1.29508e+01
       H -1.99394e+01 -1.27282e+01 -1.28998e+01
       H -2.08338e+01 -1.35004e+01 -1.38209e+01
       O -1.76673e+01  9.11407e+00 -1.44098e+01
       H -1.67909e+01  9.44947e+00 -1.47191e+01
       H -1.82325e+01  9.46809e+00 -1.51634e+01
       O -1.56636e+01 -1.12162e+01 -6.54864e+00
       H -1.57062e+01 -1.05320e+01 -7.24573e+00
       H -1.62878e+01 -1.09394e+01 -5.85237e+00
       O -6.84892e+00  1.31438e+00 -1.45168e+01
       H -6.72133e+00  2.14343e+00 -1.39823e+01
       H -7.19313e+00  6.80394e-01 -1.38360e+01
       O -1.16990e+01 -4.09672e+00 -2.04531e+01
       H -1.08778e+01 -4.46991e+00 -2.08946e+01
       H -1.13997e+01 -4.07361e+00 -1.95275e+01
       O -1.88416e+00 -1.73340e+01 -1.65229e+01
       H -1.26864e+00 -1.73140e+01 -1.72852e+01
       H -1.96171e+00 -1.65017e+01 -1.60580e+01
       O  2.25434e+01 -1.75319e+01 -1.04065e+01
       H  2.22030e+01 -1.72974e+01 -9.52761e+00
       H  2.26108e+01 -1.84648e+01 -1.04058e+01
       O -1.13748e+01 -1.58336e+00 -1.72097e+01
       H -1.11042e+01 -2.48970e+00 -1.74064e+01
       H -1.20605e+01 -1.92990e+00 -1.65728e+01
       O -2.15111e+01 -1.34991e+01 -1.53970e+01
       H -2.17289e+01 -1.39952e+01 -1.61782e+01
       H -2.12002e+01 -1.27104e+01 -1.58776e+01
       O -2.77401e+00 -1.77461e+01 -1.03745e+01
       H -3.33596e+00 -1.77289e+01 -9.58043e+00