4
# CELL(abcABC): 1000.00000  1000.00000  1000.00000    90.00000    90.00000    90.00000  Step:           0  Bead:       0 positions{angstrom}  cell{angstrom}
       O -3.17106e+00  1.05888e+00  3.53702e-01
       H -2.74370e+00  1.20341e+00 -5.35372e-01
       H -2.95478e+00  2.33833e-01  7.66043e-01
       H -3.35197e+00  1.82547e+00  8.40522e-01
4
# CELL(abcABC): 1000.00000  1000.00000  1000.00000    90.00000    90.00000    90.00000  Step:           1  Bead:       0 positions{angstrom}  cell{angstrom}
       O -3.16932e+00  1.05919e+00  3.52959e-01
       H -2.75416e+00  1.19571e+00 -5.29906e-01
       H -2.95414e+00  2.31793e-01  7.67610e-01
       H -3.36970e+00  1.83036e+00  8.45289e-01
4
# CELL(abcABC): 1000.00000  1000.00000  1000.00000    90.00000    90.00000    90.00000  Step:           2  Bead:       0 positions{angstrom}  cell{angstrom}
       O -3.16760e+00  1.05952e+00  3.51937e-01
       H -2.76579e+00  1.18750e+00 -5.22595e-01
       H -2.95111e+00  2.27389e-01  7.69845e-01
       H -3.38845e+00  1.83760e+00  8.51953e-01
4
# CELL(abcABC): 1000.00000  1000.00000  1000.00000    90.00000    90.00000    90.00000  Step:           3  Bead:       0 positions{angstrom}  cell{angstrom}
       O -3.16581e+00  1.05996e+00  3.50742e-01
       H -2.77721e+00  1.17769e+00 -5.13636e-01
       H -2.94781e+00  2.22535e-01  7.73083e-01
       H -3.40884e+00  1.84536e+00  8.58727e-01
4
# CELL(abcABC): 1000.00000  1000.00000  1000.00000    90.00000    90.00000    90.00000  Step:           4  Bead:       0 positions{angstrom}  cell{angstrom}
       O -3.16405e+00  1.06051e+00  3.49729e-01
       H -2.78838e+00  1.16657e+00 -5.07747e-01
       H -2.94364e+00  2.17713e-01  7.75909e-01
       H -3.42971e+00  1.85263e+00  8.66093e-01
4
# CELL(abcABC): 1000.00000  1000.00000  1000.00000    90.00000    90.00000    90.00000  Step:           5  Bead:       0 positions{angstrom}  cell{angstrom}
       O -3.16226e+00  1.06100e+00  3.49040e-01
       H -2.79915e+00  1.15561e+00 -5.05790e-01
       H -2.94014e+00  2.14289e-01  7.79472e-01
       H -3.45082e+00  1.85923e+00  8.71508e-01
4
# CELL(abcABC): 1000.00000  1000.00000  1000.00000    90.00000    90.00000    90.00000  Step:           6  Bead:       0 positions{angstrom}  cell{angstrom}
       O -3.16046e+00  1.06162e+00  3.48810e-01
       H -2.80825e+00  1.14520e+00 -5.09679e-01
       H -2.93753e+00  2.10165e-01  7.81534e-01
       H -3.47293e+00  1.86385e+00  8.76995e-01
4
# CELL(abcABC): 1000.00000  1000.00000  1000.00000    90.00000    90.00000    90.00000  Step:           7  Bead:       0 positions{angstrom}  cell{angstrom}
       O -3.15881e+00  1.06220e+00  3.48875e-01
       H -2.81426e+00  1.13514e+00 -5.17495e-01
       H -2.93556e+00  2.07067e-01  7.83681e-01
       H -3.49510e+00  1.86774e+00  8.81626e-01
4
# CELL(abcABC): 1000.00000  1000.00000  1000.00000    90.00000    90.00000    90.00000  Step:           8  Bead:       0 positions{angstrom}  cell{angstrom}
       O -3.15734e+00  1.06286e+00  3.49482e-01
       H -2.81786e+00  1.12541e+00 -5.30679e-01
       H -2.93318e+00  2.04745e-01  7.84355e-01
       H -3.51714e+00  1.86933e+00  8.84510e-01
4
# CELL(abcABC): 1000.00000  1000.00000  1000.00000    90.00000    90.00000    90.00000  Step:           9  Bead:       0 positions{angstrom}  cell{angstrom}
       O -3.15599e+00  1.06368e+00  3.50372e-01
       H -2.82056e+00  1.11509e+00 -5.46039e-01
       H -2.93041e+00  2.04402e-01  7.84763e-01
       H -3.53863e+00  1.86704e+00  8.85324e-01
4
# CELL(abcABC): 1000.00000  1000.00000  1000.00000    90.00000    90.00000    90.00000  Step:          10  Bead:       0 positions{angstrom}  cell{angstrom}
       O -3.15469e+00  1.06450e+00  3.51692e-01
       H -2.82283e+00  1.10492e+00 -5.63783e-01
       H -2.92815e+00  2.06566e-01  7.83631e-01
       H -3.55935e+00  1.86194e+00  8.83243e-01
4
# CELL(abcABC): 1000.00000  1000.00000  1000.00000    90.00000    90.00000    90.00000  Step:          11  Bead:       0 positions{angstrom}  cell{angstrom}
       O -3.15338e+00  1.06543e+00  3.53331e-01
       H -2.82519e+00  1.09569e+00 -5.82575e-01
       H -2.92780e+00  2.09999e-01  7.81474e-01
       H -3.57803e+00  1.85307e+00  8.78183e-01
4
# CELL(abcABC): 1000.00000  1000.00000  1000.00000    90.00000    90.00000    90.00000  Step:          12  Bead:       0 positions{angstrom}  cell{angstrom}
       O -3.15220e+00  1.06652e+00  3.55080e-01
       H -2.82715e+00  1.08656e+00 -5.99591e-01
       H -2.92813e+00  2.13310e-01  7.77987e-01
       H -3.59461e+00  1.84163e+00  8.70918e-01
4
# CELL(abcABC): 1000.00000  1000.00000  1000.00000    90.00000    90.00000    90.00000  Step:          13  Bead:       0 positions{angstrom}  cell{angstrom}
       O -3.15104e+00  1.06773e+00  3.56715e-01
       H -2.83040e+00  1.07845e+00 -6.12694e-01
       H -2.92769e+00  2.17078e-01  7.74507e-01
       H -3.61021e+00  1.82672e+00  8.61557e-01
4
# CELL(abcABC): 1000.00000  1000.00000  1000.00000    90.00000    90.00000    90.00000  Step:          14  Bead:       0 positions{angstrom}  cell{angstrom}
       O -3.14988e+00  1.06902e+00  3.58104e-01
       H -2.83396e+00  1.07067e+00 -6.20588e-01
       H -2.92718e+00  2.21578e-01  7.71338e-01
       H -3.62546e+00  1.80947e+00  8.50575e-01
4
# CELL(abcABC): 1000.00000  1000.00000  1000.00000    90.00000    90.00000    90.00000  Step:          15  Bead:       0 positions{angstrom}  cell{angstrom}
       O -3.14859e+00  1.07028e+00  3.58977e-01
       H -2.84137e+00  1.06318e+00 -6.20885e-01
       H -2.92765e+00  2.26260e-01  7.69060e-01
       H -3.63817e+00  1.79224e+00  8.39289e-01
4
# CELL(abcABC): 1000.00000  1000.00000  1000.00000    90.00000    90.00000    90.00000  Step:          16  Bead:       0 positions{angstrom}  cell{angstrom}
       O -3.14724e+00  1.07152e+00  3.59502e-01
       H -2.84964e+00  1.05632e+00 -6.16137e-01
       H -2.92860e+00  2.31251e-01  7.67877e-01
       H -3.65039e+00  1.77444e+00  8.27391e-01
4
# CELL(abcABC): 1000.00000  1000.00000  1000.00000    90.00000    90.00000    90.00000  Step:          17  Bead:       0 positions{angstrom}  cell{angstrom}
       O -3.14568e+00  1.07278e+00  3.59659e-01
       H -2.85896e+00  1.05105e+00 -6.06314e-01
       H -2.93084e+00  2.35745e-01  7.67060e-01
       H -3.66354e+00  1.75534e+00  8.15896e-01
4
# CELL(abcABC): 1000.00000  1000.00000  1000.00000    90.00000    90.00000    90.00000  Step:          18  Bead:       0 positions{angstrom}  cell{angstrom}
       O -3.14395e+00  1.07393e+00  3.59475e-01
       H -2.87080e+00  1.04784e+00 -5.92529e-01
       H -2.93218e+00  2.38674e-01  7.67711e-01
       H -3.67778e+00  1.73729e+00  8.04366e-01
4
# CELL(abcABC): 1000.00000  1000.00000  1000.00000    90.00000    90.00000    90.00000  Step:          19  Bead:       0 positions{angstrom}  cell{angstrom}
       O -3.14218e+00  1.07510e+00  3.59018e-01
       H -2.88323e+00  1.04577e+00 -5.76174e-01
       H -2.93443e+00  2.39285e-01  7.69307e-01
       H -3.69117e+00  1.72026e+00  7.93673e-01
4
# CELL(abcABC): 1000.00000  1000.00000  1000.00000    90.00000    90.00000    90.00000  Step:          20  Bead:       0 positions{angstrom}  cell{angstrom}
       O -3.14029e+00  1.07624e+00  3.58495e-01
       H -2.89596e+00  1.04540e+00 -5.61354e-01
       H -2.93779e+00  2.38325e-01  7.72652e-01
       H -3.70518e+00  1.70346e+00  7.83806e-01
4
# CELL(abcABC): 1000.00000  1000.00000  1000.00000    90.00000    90.00000    90.00000  Step:          21  Bead:       0 positions{angstrom}  cell{angstrom}
       O -3.13836e+00  1.07728e+00  3.58082e-01
       H -2.90889e+00  1.04567e+00 -5.50264e-01
       H -2.93969e+00  2.36550e-01  7.78207e-01
       H -3.72087e+00  1.68847e+00  7.73719e-01
4
# CELL(abcABC): 1000.00000  1000.00000  1000.00000    90.00000    90.00000    90.00000  Step:          22  Bead:       0 positions{angstrom}  cell{angstrom}
       O -3.13643e+00  1.07810e+00  3.57963e-01
       H -2.92218e+00  1.04605e+00 -5.42931e-01
       H -2.93953e+00  2.34159e-01  7.83028e-01
       H -3.73842e+00  1.67734e+00  7.63453e-01
4
# CELL(abcABC): 1000.00000  1000.00000  1000.00000    90.00000    90.00000    90.00000  Step:          23  Bead:       0 positions{angstrom}  cell{angstrom}
       O -3.13449e+00  1.07877e+00  3.58371e-01
       H -2.93421e+00  1.04779e+00 -5.42551e-01
       H -2.93847e+00  2.31912e-01  7.88718e-01
       H -3.75830e+00  1.66733e+00  7.50920e-01
4
# CELL(abcABC): 1000.00000  1000.00000  1000.00000    90.00000    90.00000    90.00000  Step:          24  Bead:       0 positions{angstrom}  cell{angstrom}
       O -3.13254e+00  1.07917e+00  3.59187e-01
       H -2.94447e+00  1.04921e+00 -5.49141e-01
       H -2.93695e+00  2.30872e-01  7.94745e-01
       H -3.78043e+00  1.66058e+00  7.38528e-01
4
# CELL(abcABC): 1000.00000  1000.00000  1000.00000    90.00000    90.00000    90.00000  Step:          25  Bead:       0 positions{angstrom}  cell{angstrom}
       O -3.13055e+00  1.07951e+00  3.60291e-01
       H -2.95373e+00  1.05018e+00 -5.61019e-01
       H -2.93567e+00  2.29632e-01  8.00751e-01
       H -3.80416e+00  1.65549e+00  7.26867e-01
4
# CELL(abcABC): 1000.00000  1000.00000  1000.00000    90.00000    90.00000    90.00000  Step:          26  Bead:       0 positions{angstrom}  cell{angstrom}
       O -3.12854e+00  1.07981e+00  3.61671e-01
       H -2.96221e+00  1.05090e+00 -5.78008e-01
       H -2.93399e+00  2.28805e-01  8.06081e-01
       H -3.82923e+00  1.65083e+00  7.16629e-01
4
# CELL(abcABC): 1000.00000  1000.00000  1000.00000    90.00000    90.00000    90.00000  Step:          27  Bead:       0 positions{angstrom}  cell{angstrom}
       O -3.12665e+00  1.08001e+00  3.63254e-01
       H -2.97044e+00  1.05285e+00 -5.97734e-01
       H -2.93218e+00  2.27991e-01  8.10381e-01
       H -3.85269e+00  1.64648e+00  7.06915e-01
4
# CELL(abcABC): 1000.00000  1000.00000  1000.00000    90.00000    90.00000    90.00000  Step:          28  Bead:       0 positions{angstrom}  cell{angstrom}
       O -3.12477e+00  1.08017e+00  3.64818e-01
       H -2.97954e+00  1.05344e+00 -6.17223e-01
       H -2.92969e+00  2.28249e-01  8.14061e-01
       H -3.87594e+00  1.64309e+00  6.97900e-01
4
# CELL(abcABC): 1000.00000  1000.00000  1000.00000    90.00000    90.00000    90.00000  Step:          29  Bead:       0 positions{angstrom}  cell{angstrom}
       O -3.12302e+00  1.08028e+00  3.66319e-01
       H -2.98795e+00  1.05442e+00 -6.35622e-01
       H -2.92806e+00  2.29414e-01  8.16766e-01
       H -3.89708e+00  1.63925e+00  6.89773e-01
4
# CELL(abcABC): 1000.00000  1000.00000  1000.00000    90.00000    90.00000    90.00000  Step:          30  Bead:       0 positions{angstrom}  cell{angstrom}
       O -3.12140e+00  1.08029e+00  3.67599e-01
       H -2.99601e+00  1.05635e+00 -6.48978e-01
       H -2.92659e+00  2.31381e-01  8.18889e-01
       H -3.91616e+00  1.63507e+00  6.80696e-01
4
# CELL(abcABC): 1000.00000  1000.00000  1000.00000    90.00000    90.00000    90.00000  Step:          31  Bead:       0 positions{angstrom}  cell{angstrom}
       O -3.12009e+00  1.08025e+00  3.68679e-01
       H -3.00252e+00  1.05828e+00 -6.56700e-01
       H -2.92443e+00  2.35146e-01  8.19407e-01
       H -3.93251e+00  1.63015e+00  6.70759e-01
4
# CELL(abcABC): 1000.00000  1000.00000  1000.00000    90.00000    90.00000    90.00000  Step:          32  Bead:       0 positions{angstrom}  cell{angstrom}
       O -3.11898e+00  1.08038e+00  3.69270e-01
       H -3.00984e+00  1.05805e+00 -6.57735e-01
       H -2.92161e+00  2.40508e-01  8.20316e-01
       H -3.94561e+00  1.62290e+00  6.61496e-01
4
# CELL(abcABC): 1000.00000  1000.00000  1000.00000    90.00000    90.00000    90.00000  Step:          33  Bead:       0 positions{angstrom}  cell{angstrom}
       O -3.11811e+00  1.08077e+00  3.69425e-01
       H -3.01751e+00  1.05670e+00 -6.51421e-01
       H -2.91822e+00  2.44812e-01  8.21110e-01
       H -3.95522e+00  1.61369e+00  6.51934e-01
4
# CELL(abcABC): 1000.00000  1000.00000  1000.00000    90.00000    90.00000    90.00000  Step:          34  Bead:       0 positions{angstrom}  cell{angstrom}
       O -3.11737e+00  1.08137e+00  3.69374e-01
       H -3.02436e+00  1.05458e+00 -6.39761e-01
       H -2.91641e+00  2.48290e-01  8.21781e-01
       H -3.96197e+00  1.60288e+00  6.40403e-01
4
# CELL(abcABC): 1000.00000  1000.00000  1000.00000    90.00000    90.00000    90.00000  Step:          35  Bead:       0 positions{angstrom}  cell{angstrom}
       O -3.11693e+00  1.08211e+00  3.69085e-01
       H -3.02894e+00  1.05169e+00 -6.24489e-01
       H -2.91557e+00  2.52197e-01  8.22783e-01
       H -3.96512e+00  1.59012e+00  6.28721e-01
4
# CELL(abcABC): 1000.00000  1000.00000  1000.00000    90.00000    90.00000    90.00000  Step:          36  Bead:       0 positions{angstrom}  cell{angstrom}
       O -3.11680e+00  1.08294e+00  3.68661e-01
       H -3.03249e+00  1.04803e+00 -6.06993e-01
       H -2.91430e+00  2.56750e-01  8.22716e-01
       H -3.96488e+00  1.57598e+00  6.18027e-01
4
# CELL(abcABC): 1000.00000  1000.00000  1000.00000    90.00000    90.00000    90.00000  Step:          37  Bead:       0 positions{angstrom}  cell{angstrom}
       O -3.11700e+00  1.08401e+00  3.68074e-01
       H -3.03438e+00  1.04438e+00 -5.87008e-01
       H -2.91215e+00  2.59834e-01  8.22086e-01
       H -3.96196e+00  1.55966e+00  6.07978e-01
4
# CELL(abcABC): 1000.00000  1000.00000  1000.00000    90.00000    90.00000    90.00000  Step:          38  Bead:       0 positions{angstrom}  cell{angstrom}
       O -3.11730e+00  1.08522e+00  3.67738e-01
       H -3.03597e+00  1.03964e+00 -5.70037e-01
       H -2.90943e+00  2.60873e-01  8.21190e-01
       H -3.95842e+00  1.54407e+00  5.97248e-01
4
# CELL(abcABC): 1000.00000  1000.00000  1000.00000    90.00000    90.00000    90.00000  Step:          39  Bead:       0 positions{angstrom}  cell{angstrom}
       O -3.11798e+00  1.08668e+00  3.67512e-01
       H -3.03530e+00  1.03341e+00 -5.56792e-01
       H -2.90573e+00  2.59904e-01  8.21237e-01
       H -3.95204e+00  1.52816e+00  5.87537e-01
4
# CELL(abcABC): 1000.00000  1000.00000  1000.00000    90.00000    90.00000    90.00000  Step:          40  Bead:       0 positions{angstrom}  cell{angstrom}
       O -3.11886e+00  1.08814e+00  3.67421e-01
       H -3.03286e+00  1.02639e+00 -5.48809e-01
       H -2.90120e+00  2.58622e-01  8.22897e-01
       H -3.94499e+00  1.51318e+00  5.79342e-01
4
# CELL(abcABC): 1000.00000  1000.00000  1000.00000    90.00000    90.00000    90.00000  Step:          41  Bead:       0 positions{angstrom}  cell{angstrom}
       O -3.11983e+00  1.08956e+00  3.67650e-01
       H -3.02888e+00  1.01918e+00 -5.48634e-01
       H -2.89558e+00  2.57775e-01  8.24754e-01
       H -3.93922e+00  1.49869e+00  5.73676e-01
4
# CELL(abcABC): 1000.00000  1000.00000  1000.00000    90.00000    90.00000    90.00000  Step:          42  Bead:       0 positions{angstrom}  cell{angstrom}
       O -3.12091e+00  1.09102e+00  3.68274e-01
       H -3.02163e+00  1.00930e+00 -5.55942e-01
       H -2.88929e+00  2.57493e-01  8.26772e-01
       H -3.93555e+00  1.48569e+00  5.69054e-01
4
# CELL(abcABC): 1000.00000  1000.00000  1000.00000    90.00000    90.00000    90.00000  Step:          43  Bead:       0 positions{angstrom}  cell{angstrom}
       O -3.12190e+00  1.09226e+00  3.69147e-01
       H -3.01301e+00  9.99615e-01 -5.69166e-01
       H -2.88259e+00  2.59473e-01  8.28769e-01
       H -3.93525e+00  1.47372e+00  5.66426e-01
4
# CELL(abcABC): 1000.00000  1000.00000  1000.00000    90.00000    90.00000    90.00000  Step:          44  Bead:       0 positions{angstrom}  cell{angstrom}
       O -3.12269e+00  1.09333e+00  3.70097e-01
       H -3.00285e+00  9.88956e-01 -5.86171e-01
       H -2.87558e+00  2.62152e-01  8.30080e-01
       H -3.93973e+00  1.46471e+00  5.67047e-01
4
# CELL(abcABC): 1000.00000  1000.00000  1000.00000    90.00000    90.00000    90.00000  Step:          45  Bead:       0 positions{angstrom}  cell{angstrom}
       O -3.12320e+00  1.09420e+00  3.71017e-01
       H -2.99234e+00  9.78519e-01 -6.04340e-01
       H -2.86770e+00  2.65366e-01  8.30443e-01
       H -3.95017e+00  1.45818e+00  5.70241e-01
4
# CELL(abcABC): 1000.00000  1000.00000  1000.00000    90.00000    90.00000    90.00000  Step:          46  Bead:       0 positions{angstrom}  cell{angstrom}
       O -3.12354e+00  1.09486e+00  3.71740e-01
       H -2.98140e+00  9.69201e-01 -6.21027e-01
       H -2.85978e+00  2.68847e-01  8.30285e-01
       H -3.96350e+00  1.45356e+00  5.75605e-01
4
# CELL(abcABC): 1000.00000  1000.00000  1000.00000    90.00000    90.00000    90.00000  Step:          47  Bead:       0 positions{angstrom}  cell{angstrom}
       O -3.12371e+00  1.09519e+00  3.72254e-01
       H -2.97027e+00  9.60486e-01 -6.33647e-01
       H -2.85157e+00  2.73564e-01  8.29302e-01
       H -3.98023e+00  1.45237e+00  5.81052e-01
4
# CELL(abcABC): 1000.00000  1000.00000  1000.00000    90.00000    90.00000    90.00000  Step:          48  Bead:       0 positions{angstrom}  cell{angstrom}
       O -3.12376e+00  1.09541e+00  3.72357e-01
       H -2.95878e+00  9.51892e-01 -6.40865e-01
       H -2.84320e+00  2.79660e-01  8.27782e-01
       H -3.99928e+00  1.45137e+00  5.88155e-01
4
# CELL(abcABC): 1000.00000  1000.00000  1000.00000    90.00000    90.00000    90.00000  Step:          49  Bead:       0 positions{angstrom}  cell{angstrom}
       O -3.12383e+00  1.09547e+00  3.71912e-01
       H -2.94760e+00  9.44189e-01 -6.41695e-01
       H -2.83340e+00  2.85919e-01  8.26816e-01
       H -4.01912e+00  1.45173e+00  5.97021e-01
4
# CELL(abcABC): 1000.00000  1000.00000  1000.00000    90.00000    90.00000    90.00000  Step:          50  Bead:       0 positions{angstrom}  cell{angstrom}
       O -3.12378e+00  1.09550e+00  3.71134e-01
       H -2.93734e+00  9.38113e-01 -6.36863e-01
       H -2.82507e+00  2.91644e-01  8.26566e-01
       H -4.03849e+00  1.45170e+00  6.04781e-01
4
# CELL(abcABC): 1000.00000  1000.00000  1000.00000    90.00000    90.00000    90.00000  Step:          51  Bead:       0 positions{angstrom}  cell{angstrom}
       O -3.12385e+00  1.09543e+00  3.69974e-01
       H -2.92823e+00  9.33210e-01 -6.26848e-01
       H -2.81684e+00  2.97685e-01  8.26950e-01
       H -4.05479e+00  1.45157e+00  6.12793e-01
4
# CELL(abcABC): 1000.00000  1000.00000  1000.00000    90.00000    90.00000    90.00000  Step:          52  Bead:       0 positions{angstrom}  cell{angstrom}
       O -3.12405e+00  1.09542e+00  3.68591e-01
       H -2.92039e+00  9.29691e-01 -6.11971e-01
       H -2.80869e+00  3.03041e-01  8.27106e-01
       H -4.06761e+00  1.45003e+00  6.19720e-01
4
# CELL(abcABC): 1000.00000  1000.00000  1000.00000    90.00000    90.00000    90.00000  Step:          53  Bead:       0 positions{angstrom}  cell{angstrom}
       O -3.12445e+00  1.09534e+00  3.66929e-01
       H -2.91285e+00  9.28251e-01 -5.94405e-01
       H -2.80070e+00  3.09668e-01  8.28918e-01
       H -4.07668e+00  1.44602e+00  6.26722e-01
4
# CELL(abcABC): 1000.00000  1000.00000  1000.00000    90.00000    90.00000    90.00000  Step:          54  Bead:       0 positions{angstrom}  cell{angstrom}
       O -3.12506e+00  1.09535e+00  3.64864e-01
       H -2.90614e+00  9.27349e-01 -5.73773e-01
       H -2.79300e+00  3.16849e-01  8.32664e-01
       H -4.08152e+00  1.43964e+00  6.35116e-01
4
# CELL(abcABC): 1000.00000  1000.00000  1000.00000    90.00000    90.00000    90.00000  Step:          55  Bead:       0 positions{angstrom}  cell{angstrom}
       O -3.12595e+00  1.09538e+00  3.62764e-01
       H -2.90048e+00  9.27780e-01 -5.52534e-01
       H -2.78509e+00  3.24045e-01  8.38324e-01
       H -4.08088e+00  1.43147e+00  6.41557e-01
4
# CELL(abcABC): 1000.00000  1000.00000  1000.00000    90.00000    90.00000    90.00000  Step:          56  Bead:       0 positions{angstrom}  cell{angstrom}
       O -3.12719e+00  1.09540e+00  3.60830e-01
       H -2.89263e+00  9.29323e-01 -5.33403e-01
       H -2.77730e+00  3.31070e-01  8.44103e-01
       H -4.07687e+00  1.42264e+00  6.47353e-01
4
# CELL(abcABC): 1000.00000  1000.00000  1000.00000    90.00000    90.00000    90.00000  Step:          57  Bead:       0 positions{angstrom}  cell{angstrom}
       O -3.12871e+00  1.09539e+00  3.59183e-01
       H -2.88261e+00  9.31955e-01 -5.18954e-01
       H -2.77060e+00  3.37911e-01  8.52025e-01
       H -4.06945e+00  1.41331e+00  6.51123e-01
4
# CELL(abcABC): 1000.00000  1000.00000  1000.00000    90.00000    90.00000    90.00000  Step:          58  Bead:       0 positions{angstrom}  cell{angstrom}
       O -3.13060e+00  1.09543e+00  3.58013e-01
       H -2.87035e+00  9.34068e-01 -5.11767e-01
       H -2.76363e+00  3.45256e-01  8.61603e-01
       H -4.05871e+00  1.40324e+00  6.52928e-01
4
# CELL(abcABC): 1000.00000  1000.00000  1000.00000    90.00000    90.00000    90.00000  Step:          59  Bead:       0 positions{angstrom}  cell{angstrom}
       O -3.13281e+00  1.09539e+00  3.57260e-01
       H -2.85574e+00  9.36437e-01 -5.12225e-01
       H -2.75652e+00  3.53894e-01  8.73614e-01
       H -4.04536e+00  1.39279e+00  6.53330e-01
4
# CELL(abcABC): 1000.00000  1000.00000  1000.00000    90.00000    90.00000    90.00000  Step:          60  Bead:       0 positions{angstrom}  cell{angstrom}
       O -3.13525e+00  1.09533e+00  3.57053e-01
       H -2.84087e+00  9.38704e-01 -5.19585e-01
       H -2.74885e+00  3.62997e-01  8.84622e-01
       H -4.02910e+00  1.38237e+00  6.52963e-01
4
# CELL(abcABC): 1000.00000  1000.00000  1000.00000    90.00000    90.00000    90.00000  Step:          61  Bead:       0 positions{angstrom}  cell{angstrom}
       O -3.13788e+00  1.09519e+00  3.57262e-01
       H -2.82434e+00  9.41010e-01 -5.32351e-01
       H -2.74022e+00  3.73117e-01  8.94637e-01
       H -4.01262e+00  1.37229e+00  6.52391e-01
4
# CELL(abcABC): 1000.00000  1000.00000  1000.00000    90.00000    90.00000    90.00000  Step:          62  Bead:       0 positions{angstrom}  cell{angstrom}
       O -3.14036e+00  1.09494e+00  3.57828e-01
       H -2.80865e+00  9.43442e-01 -5.48233e-01
       H -2.73316e+00  3.84060e-01  9.04194e-01
       H -3.99599e+00  1.36286e+00  6.49742e-01
4
# CELL(abcABC): 1000.00000  1000.00000  1000.00000    90.00000    90.00000    90.00000  Step:          63  Bead:       0 positions{angstrom}  cell{angstrom}
       O -3.14253e+00  1.09434e+00  3.58281e-01
       H -2.79361e+00  9.48183e-01 -5.63771e-01
       H -2.72692e+00  3.95487e-01  9.13457e-01
       H -3.98271e+00  1.35610e+00  6.48816e-01
4
# CELL(abcABC): 1000.00000  1000.00000  1000.00000    90.00000    90.00000    90.00000  Step:          64  Bead:       0 positions{angstrom}  cell{angstrom}
       O -3.14435e+00  1.09347e+00  3.58581e-01
       H -2.77910e+00  9.54847e-01 -5.76345e-01
       H -2.72087e+00  4.07779e-01  9.22499e-01
       H -3.97453e+00  1.35110e+00  6.47598e-01
4
# CELL(abcABC): 1000.00000  1000.00000  1000.00000    90.00000    90.00000    90.00000  Step:          65  Bead:       0 positions{angstrom}  cell{angstrom}
       O -3.14565e+00  1.09222e+00  3.58673e-01
       H -2.76777e+00  9.63965e-01 -5.86501e-01
       H -2.71467e+00  4.22252e-01  9.31071e-01
       H -3.97137e+00  1.34726e+00  6.47718e-01
4
# CELL(abcABC): 1000.00000  1000.00000  1000.00000    90.00000    90.00000    90.00000  Step:          66  Bead:       0 positions{angstrom}  cell{angstrom}
       O -3.14640e+00  1.09057e+00  3.58362e-01
       H -2.75940e+00  9.77592e-01 -5.91409e-01
       H -2.70869e+00  4.35939e-01  9.39684e-01
       H -3.97373e+00  1.34611e+00  6.48950e-01
4
# CELL(abcABC): 1000.00000  1000.00000  1000.00000    90.00000    90.00000    90.00000  Step:          67  Bead:       0 positions{angstrom}  cell{angstrom}
       O -3.14654e+00  1.08872e+00  3.57709e-01
       H -2.75383e+00  9.92301e-01 -5.92090e-01
       H -2.70237e+00  4.50211e-01  9.48539e-01
       H -3.98351e+00  1.34657e+00  6.51133e-01
4
# CELL(abcABC): 1000.00000  1000.00000  1000.00000    90.00000    90.00000    90.00000  Step:          68  Bead:       0 positions{angstrom}  cell{angstrom}
       O -3.14622e+00  1.08658e+00  3.56885e-01
       H -2.75071e+00  1.00849e+00 -5.87974e-01
       H -2.69570e+00  4.64885e-01  9.55511e-01
       H -3.99835e+00  1.34957e+00  6.53137e-01
4
# CELL(abcABC): 1000.00000  1000.00000  1000.00000    90.00000    90.00000    90.00000  Step:          69  Bead:       0 positions{angstrom}  cell{angstrom}
       O -3.14548e+00  1.08440e+00  3.55613e-01
       H -2.75082e+00  1.02459e+00 -5.77500e-01
       H -2.68947e+00  4.79742e-01  9.63162e-01
       H -4.01624e+00  1.35332e+00  6.55200e-01
4
# CELL(abcABC): 1000.00000  1000.00000  1000.00000    90.00000    90.00000    90.00000  Step:          70  Bead:       0 positions{angstrom}  cell{angstrom}
       O -3.14468e+00  1.08198e+00  3.54170e-01
       H -2.75292e+00  1.04232e+00 -5.64185e-01
       H -2.68254e+00  4.95288e-01  9.70347e-01
       H -4.03368e+00  1.35849e+00  6.57595e-01
4
# CELL(abcABC): 1000.00000  1000.00000  1000.00000    90.00000    90.00000    90.00000  Step:          71  Bead:       0 positions{angstrom}  cell{angstrom}
       O -3.14379e+00  1.07959e+00  3.52733e-01
       H -2.75741e+00  1.05962e+00 -5.49839e-01
       H -2.67533e+00  5.10084e-01  9.76955e-01
       H -4.05061e+00  1.36426e+00  6.59460e-01
4
# CELL(abcABC): 1000.00000  1000.00000  1000.00000    90.00000    90.00000    90.00000  Step:          72  Bead:       0 positions{angstrom}  cell{angstrom}
       O -3.14303e+00  1.07711e+00  3.51308e-01
       H -2.76242e+00  1.07752e+00 -5.34442e-01
       H -2.66700e+00  5.24698e-01  9.84208e-01
       H -4.06598e+00  1.37105e+00  6.59423e-01
4
# CELL(abcABC): 1000.00000  1000.00000  1000.00000    90.00000    90.00000    90.00000  Step:          73  Bead:       0 positions{angstrom}  cell{angstrom}
       O -3.14246e+00  1.07471e+00  3.50159e-01
       H -2.76743e+00  1.09540e+00 -5.20344e-01
       H -2.65771e+00  5.39335e-01  9.91327e-01
       H -4.07924e+00  1.37667e+00  6.56456e-01
4
# CELL(abcABC): 1000.00000  1000.00000  1000.00000    90.00000    90.00000    90.00000  Step:          74  Bead:       0 positions{angstrom}  cell{angstrom}
       O -3.14228e+00  1.07231e+00  3.49510e-01
       H -2.77101e+00  1.11338e+00 -5.10601e-01
       H -2.64746e+00  5.53700e-01  9.97019e-01
       H -4.08888e+00  1.38242e+00  6.51309e-01
4
# CELL(abcABC): 1000.00000  1000.00000  1000.00000    90.00000    90.00000    90.00000  Step:          75  Bead:       0 positions{angstrom}  cell{angstrom}
       O -3.14235e+00  1.07002e+00  3.49297e-01
       H -2.77321e+00  1.13039e+00 -5.05768e-01
       H -2.63689e+00  5.67194e-01  1.00314e+00
       H -4.09605e+00  1.38828e+00  6.43743e-01
4
# CELL(abcABC): 1000.00000  1000.00000  1000.00000    90.00000    90.00000    90.00000  Step:          76  Bead:       0 positions{angstrom}  cell{angstrom}
       O -3.14296e+00  1.06768e+00  3.49430e-01
       H -2.77231e+00  1.14767e+00 -5.04706e-01
       H -2.62570e+00  5.80557e-01  1.00888e+00
       H -4.09842e+00  1.39479e+00  6.34822e-01
4
# CELL(abcABC): 1000.00000  1000.00000  1000.00000    90.00000    90.00000    90.00000  Step:          77  Bead:       0 positions{angstrom}  cell{angstrom}
       O -3.14394e+00  1.06538e+00  3.49975e-01
       H -2.76917e+00  1.16590e+00 -5.08159e-01
       H -2.61442e+00  5.94147e-01  1.01463e+00
       H -4.09736e+00  1.39946e+00  6.23889e-01
4
# CELL(abcABC): 1000.00000  1000.00000  1000.00000    90.00000    90.00000    90.00000  Step:          78  Bead:       0 positions{angstrom}  cell{angstrom}
       O -3.14526e+00  1.06317e+00  3.51052e-01
       H -2.76524e+00  1.18343e+00 -5.15920e-01
       H -2.60191e+00  6.08413e-01  1.01937e+00
       H -4.09281e+00  1.40279e+00  6.09804e-01
4
# CELL(abcABC): 1000.00000  1000.00000  1000.00000    90.00000    90.00000    90.00000  Step:          79  Bead:       0 positions{angstrom}  cell{angstrom}
       O -3.14697e+00  1.06114e+00  3.52344e-01
       H -2.76066e+00  1.20127e+00 -5.24050e-01
       H -2.58784e+00  6.21957e-01  1.02306e+00
       H -4.08432e+00  1.40360e+00  5.93738e-01
4
# CELL(abcABC): 1000.00000  1000.00000  1000.00000    90.00000    90.00000    90.00000  Step:          80  Bead:       0 positions{angstrom}  cell{angstrom}
       O -3.14900e+00  1.05922e+00  3.53651e-01
       H -2.75508e+00  1.21895e+00 -5.32087e-01
       H -2.57329e+00  6.35507e-01  1.02678e+00
       H -4.07219e+00  1.40286e+00  5.77300e-01
4
# CELL(abcABC): 1000.00000  1000.00000  1000.00000    90.00000    90.00000    90.00000  Step:          81  Bead:       0 positions{angstrom}  cell{angstrom}
       O -3.15121e+00  1.05724e+00  3.55025e-01
       H -2.74747e+00  1.23679e+00 -5.39047e-01
       H -2.55957e+00  6.51411e-01  1.02948e+00
       H -4.05853e+00  1.40047e+00  5.59749e-01
4
# CELL(abcABC): 1000.00000  1000.00000  1000.00000    90.00000    90.00000    90.00000  Step:          82  Bead:       0 positions{angstrom}  cell{angstrom}
       O -3.15338e+00  1.05547e+00  3.56188e-01
       H -2.73990e+00  1.25309e+00 -5.42095e-01
       H -2.54603e+00  6.66753e-01  1.03086e+00
       H -4.04509e+00  1.39693e+00  5.42969e-01
4
# CELL(abcABC): 1000.00000  1000.00000  1000.00000    90.00000    90.00000    90.00000  Step:          83  Bead:       0 positions{angstrom}  cell{angstrom}
       O -3.15543e+00  1.05369e+00  3.57146e-01
       H -2.73351e+00  1.26862e+00 -5.40613e-01
       H -2.53339e+00  6.83252e-01  1.03094e+00
       H -4.03159e+00  1.39327e+00  5.26193e-01
4
# CELL(abcABC): 1000.00000  1000.00000  1000.00000    90.00000    90.00000    90.00000  Step:          84  Bead:       0 positions{angstrom}  cell{angstrom}
       O -3.15717e+00  1.05192e+00  3.57868e-01
       H -2.72760e+00  1.28206e+00 -5.35570e-01
       H -2.52295e+00  7.00782e-01  1.02966e+00
       H -4.02043e+00  1.39030e+00  5.10979e-01
4
# CELL(abcABC): 1000.00000  1000.00000  1000.00000    90.00000    90.00000    90.00000  Step:          85  Bead:       0 positions{angstrom}  cell{angstrom}