4
# CELL(abcABC): 1000.00000  1000.00000  1000.00000    90.00000    90.00000    90.00000  Step:           0  Bead:       0 positions{angstrom}  cell{angstrom}
       O -3.18306e+00  1.07303e+00  3.58868e-01
       H -2.82826e+00  4.67015e-01  9.91625e-01
       H -2.75157e+00  1.86989e+00  5.17665e-01
       H -3.28016e+00  7.01116e-01 -5.20087e-01
4
# CELL(abcABC): 1000.00000  1000.00000  1000.00000    90.00000    90.00000    90.00000  Step:           1  Bead:       0 positions{angstrom}  cell{angstrom}
       O -3.18146e+00  1.07316e+00  3.58360e-01
       H -2.83810e+00  4.58666e-01  9.96397e-01
       H -2.75014e+00  1.87249e+00  5.18054e-01
       H -3.29710e+00  7.04783e-01 -5.17181e-01
4
# CELL(abcABC): 1000.00000  1000.00000  1000.00000    90.00000    90.00000    90.00000  Step:           2  Bead:       0 positions{angstrom}  cell{angstrom}
       O -3.18009e+00  1.07296e+00  3.57964e-01
       H -2.84866e+00  4.48770e-01  1.00226e+00
       H -2.74479e+00  1.88117e+00  5.16949e-01
       H -3.31374e+00  7.09136e-01 -5.15659e-01
4
# CELL(abcABC): 1000.00000  1000.00000  1000.00000    90.00000    90.00000    90.00000  Step:           3  Bead:       0 positions{angstrom}  cell{angstrom}
       O -3.17874e+00  1.07255e+00  3.57667e-01
       H -2.85949e+00  4.36624e-01  1.00991e+00
       H -2.73809e+00  1.89561e+00  5.14923e-01
       H -3.33098e+00  7.13363e-01 -5.16572e-01
4
# CELL(abcABC): 1000.00000  1000.00000  1000.00000    90.00000    90.00000    90.00000  Step:           4  Bead:       0 positions{angstrom}  cell{angstrom}
       O -3.17739e+00  1.07203e+00  3.57677e-01
       H -2.87167e+00  4.23091e-01  1.01572e+00
       H -2.73021e+00  1.91331e+00  5.10785e-01
       H -3.34804e+00  7.17525e-01 -5.18398e-01
4
# CELL(abcABC): 1000.00000  1000.00000  1000.00000    90.00000    90.00000    90.00000  Step:           5  Bead:       0 positions{angstrom}  cell{angstrom}
       O -3.17585e+00  1.07132e+00  3.57984e-01
       H -2.88591e+00  4.10196e-01  1.01986e+00
       H -2.72353e+00  1.93253e+00  5.05927e-01
       H -3.36498e+00  7.22433e-01 -5.22552e-01
4
# CELL(abcABC): 1000.00000  1000.00000  1000.00000    90.00000    90.00000    90.00000  Step:           6  Bead:       0 positions{angstrom}  cell{angstrom}
       O -3.17403e+00  1.07071e+00  3.58575e-01
       H -2.90143e+00  3.98805e-01  1.02123e+00
       H -2.71903e+00  1.94841e+00  4.98377e-01
       H -3.38282e+00  7.27683e-01 -5.25755e-01
4
# CELL(abcABC): 1000.00000  1000.00000  1000.00000    90.00000    90.00000    90.00000  Step:           7  Bead:       0 positions{angstrom}  cell{angstrom}
       O -3.17207e+00  1.07007e+00  3.59183e-01
       H -2.91672e+00  3.89059e-01  1.02192e+00
       H -2.71689e+00  1.96064e+00  4.90092e-01
       H -3.40085e+00  7.35254e-01 -5.27819e-01
4
# CELL(abcABC): 1000.00000  1000.00000  1000.00000    90.00000    90.00000    90.00000  Step:           8  Bead:       0 positions{angstrom}  cell{angstrom}
       O -3.16999e+00  1.06957e+00  3.60008e-01
       H -2.93205e+00  3.81250e-01  1.01996e+00
       H -2.71628e+00  1.96757e+00  4.79898e-01
       H -3.41910e+00  7.44128e-01 -5.28746e-01
4
# CELL(abcABC): 1000.00000  1000.00000  1000.00000    90.00000    90.00000    90.00000  Step:           9  Bead:       0 positions{angstrom}  cell{angstrom}
       O -3.16777e+00  1.06930e+00  3.60802e-01
       H -2.94806e+00  3.74574e-01  1.01731e+00
       H -2.71724e+00  1.96966e+00  4.69376e-01
       H -3.43734e+00  7.53050e-01 -5.28185e-01
4
# CELL(abcABC): 1000.00000  1000.00000  1000.00000    90.00000    90.00000    90.00000  Step:          10  Bead:       0 positions{angstrom}  cell{angstrom}
       O -3.16540e+00  1.06910e+00  3.61753e-01
       H -2.96432e+00  3.69822e-01  1.01235e+00
       H -2.72047e+00  1.96729e+00  4.57563e-01
       H -3.45547e+00  7.63235e-01 -5.26514e-01
4
# CELL(abcABC): 1000.00000  1000.00000  1000.00000    90.00000    90.00000    90.00000  Step:          11  Bead:       0 positions{angstrom}  cell{angstrom}
       O -3.16292e+00  1.06906e+00  3.62810e-01
       H -2.98028e+00  3.67522e-01  1.00501e+00
       H -2.72708e+00  1.95982e+00  4.45186e-01
       H -3.47227e+00  7.73672e-01 -5.23565e-01
4
# CELL(abcABC): 1000.00000  1000.00000  1000.00000    90.00000    90.00000    90.00000  Step:          12  Bead:       0 positions{angstrom}  cell{angstrom}
       O -3.16054e+00  1.06920e+00  3.63824e-01
       H -2.99445e+00  3.66341e-01  9.96977e-01
       H -2.73530e+00  1.94721e+00  4.32099e-01
       H -3.48767e+00  7.85320e-01 -5.18545e-01
4
# CELL(abcABC): 1000.00000  1000.00000  1000.00000    90.00000    90.00000    90.00000  Step:          13  Bead:       0 positions{angstrom}  cell{angstrom}
       O -3.15829e+00  1.06941e+00  3.64627e-01
       H -3.00766e+00  3.66514e-01  9.89645e-01
       H -2.74283e+00  1.93208e+00  4.19778e-01
       H -3.50276e+00  7.96816e-01 -5.11633e-01
4
# CELL(abcABC): 1000.00000  1000.00000  1000.00000    90.00000    90.00000    90.00000  Step:          14  Bead:       0 positions{angstrom}  cell{angstrom}
       O -3.15624e+00  1.06960e+00  3.65131e-01
       H -3.01830e+00  3.66594e-01  9.84053e-01
       H -2.74939e+00  1.91720e+00  4.08627e-01
       H -3.51805e+00  8.08632e-01 -5.02888e-01
4
# CELL(abcABC): 1000.00000  1000.00000  1000.00000    90.00000    90.00000    90.00000  Step:          15  Bead:       0 positions{angstrom}  cell{angstrom}
       O -3.15435e+00  1.06957e+00  3.65110e-01
       H -3.02955e+00  3.65908e-01  9.82629e-01
       H -2.75495e+00  1.90471e+00  3.99240e-01
       H -3.53124e+00  8.22320e-01 -4.91743e-01
4
# CELL(abcABC): 1000.00000  1000.00000  1000.00000    90.00000    90.00000    90.00000  Step:          16  Bead:       0 positions{angstrom}  cell{angstrom}
       O -3.15277e+00  1.06925e+00  3.64778e-01
       H -3.03838e+00  3.64470e-01  9.83212e-01
       H -2.75807e+00  1.89727e+00  3.91796e-01
       H -3.54434e+00  8.36316e-01 -4.79616e-01
4
# CELL(abcABC): 1000.00000  1000.00000  1000.00000    90.00000    90.00000    90.00000  Step:          17  Bead:       0 positions{angstrom}  cell{angstrom}
       O -3.15137e+00  1.06863e+00  3.64164e-01
       H -3.04518e+00  3.63190e-01  9.86408e-01
       H -2.75898e+00  1.89583e+00  3.85468e-01
       H -3.55878e+00  8.48823e-01 -4.66744e-01
4
# CELL(abcABC): 1000.00000  1000.00000  1000.00000    90.00000    90.00000    90.00000  Step:          18  Bead:       0 positions{angstrom}  cell{angstrom}
       O -3.15018e+00  1.06762e+00  3.63328e-01
       H -3.05178e+00  3.62690e-01  9.91999e-01
       H -2.75546e+00  1.90004e+00  3.81211e-01
       H -3.57467e+00  8.61168e-01 -4.54805e-01
4
# CELL(abcABC): 1000.00000  1000.00000  1000.00000    90.00000    90.00000    90.00000  Step:          19  Bead:       0 positions{angstrom}  cell{angstrom}
       O -3.14925e+00  1.06640e+00  3.62318e-01
       H -3.05685e+00  3.62332e-01  9.99951e-01
       H -2.74983e+00  1.90840e+00  3.78423e-01
       H -3.59006e+00  8.72449e-01 -4.43936e-01
4
# CELL(abcABC): 1000.00000  1000.00000  1000.00000    90.00000    90.00000    90.00000  Step:          20  Bead:       0 positions{angstrom}  cell{angstrom}
       O -3.14839e+00  1.06508e+00  3.61284e-01
       H -3.06087e+00  3.63128e-01  1.00789e+00
       H -2.74302e+00  1.92000e+00  3.77941e-01
       H -3.60636e+00  8.81159e-01 -4.34981e-01
4
# CELL(abcABC): 1000.00000  1000.00000  1000.00000    90.00000    90.00000    90.00000  Step:          21  Bead:       0 positions{angstrom}  cell{angstrom}
       O -3.14763e+00  1.06370e+00  3.60298e-01
       H -3.06445e+00  3.64454e-01  1.01555e+00
       H -2.73343e+00  1.93332e+00  3.80360e-01
       H -3.62447e+00  8.88355e-01 -4.29414e-01
4
# CELL(abcABC): 1000.00000  1000.00000  1000.00000    90.00000    90.00000    90.00000  Step:          22  Bead:       0 positions{angstrom}  cell{angstrom}
       O -3.14689e+00  1.06231e+00  3.59411e-01
       H -3.06845e+00  3.66189e-01  1.02464e+00
       H -2.72147e+00  1.94599e+00  3.82943e-01
       H -3.64416e+00  8.95949e-01 -4.27001e-01
4
# CELL(abcABC): 1000.00000  1000.00000  1000.00000    90.00000    90.00000    90.00000  Step:          23  Bead:       0 positions{angstrom}  cell{angstrom}
       O -3.14611e+00  1.06107e+00  3.58718e-01
       H -3.07175e+00  3.70050e-01  1.03317e+00
       H -2.70921e+00  1.95635e+00  3.87472e-01
       H -3.66553e+00  9.01409e-01 -4.29066e-01
4
# CELL(abcABC): 1000.00000  1000.00000  1000.00000    90.00000    90.00000    90.00000  Step:          24  Bead:       0 positions{angstrom}  cell{angstrom}
       O -3.14528e+00  1.05996e+00  3.57998e-01
       H -3.07405e+00  3.74661e-01  1.04133e+00
       H -2.69786e+00  1.96353e+00  3.93577e-01
       H -3.68783e+00  9.07374e-01 -4.31892e-01
4
# CELL(abcABC): 1000.00000  1000.00000  1000.00000    90.00000    90.00000    90.00000  Step:          25  Bead:       0 positions{angstrom}  cell{angstrom}
       O -3.14433e+00  1.05918e+00  3.57100e-01
       H -3.07614e+00  3.80119e-01  1.04976e+00
       H -2.68871e+00  1.96478e+00  4.00965e-01
       H -3.70995e+00  9.12936e-01 -4.33452e-01
4
# CELL(abcABC): 1000.00000  1000.00000  1000.00000    90.00000    90.00000    90.00000  Step:          26  Bead:       0 positions{angstrom}  cell{angstrom}
       O -3.14331e+00  1.05876e+00  3.56049e-01
       H -3.07808e+00  3.86846e-01  1.05668e+00
       H -2.68144e+00  1.96003e+00  4.09028e-01
       H -3.73147e+00  9.17688e-01 -4.31765e-01
4
# CELL(abcABC): 1000.00000  1000.00000  1000.00000    90.00000    90.00000    90.00000  Step:          27  Bead:       0 positions{angstrom}  cell{angstrom}
       O -3.14236e+00  1.05857e+00  3.54869e-01
       H -3.08015e+00  3.96414e-01  1.06203e+00
       H -2.67642e+00  1.94883e+00  4.17400e-01
       H -3.74952e+00  9.22341e-01 -4.26747e-01
4
# CELL(abcABC): 1000.00000  1000.00000  1000.00000    90.00000    90.00000    90.00000  Step:          28  Bead:       0 positions{angstrom}  cell{angstrom}
       O -3.14135e+00  1.05859e+00  3.53454e-01
       H -3.08330e+00  4.06079e-01  1.06639e+00
       H -2.67291e+00  1.93281e+00  4.26455e-01
       H -3.76585e+00  9.28267e-01 -4.17701e-01
4
# CELL(abcABC): 1000.00000  1000.00000  1000.00000    90.00000    90.00000    90.00000  Step:          29  Bead:       0 positions{angstrom}  cell{angstrom}
       O -3.14041e+00  1.05873e+00  3.51880e-01
       H -3.08585e+00  4.17375e-01  1.06863e+00
       H -2.67205e+00  1.91301e+00  4.35747e-01
       H -3.77913e+00  9.34696e-01 -4.04251e-01
4
# CELL(abcABC): 1000.00000  1000.00000  1000.00000    90.00000    90.00000    90.00000  Step:          30  Bead:       0 positions{angstrom}  cell{angstrom}
       O -3.13954e+00  1.05880e+00  3.50102e-01
       H -3.08817e+00  4.30476e-01  1.07125e+00
       H -2.67245e+00  1.89114e+00  4.45559e-01
       H -3.79019e+00  9.42226e-01 -3.88461e-01
4
# CELL(abcABC): 1000.00000  1000.00000  1000.00000    90.00000    90.00000    90.00000  Step:          31  Bead:       0 positions{angstrom}  cell{angstrom}
       O -3.13892e+00  1.05871e+00  3.48226e-01
       H -3.08915e+00  4.43938e-01  1.07411e+00
       H -2.67234e+00  1.87057e+00  4.54754e-01
       H -3.79921e+00  9.50810e-01 -3.70732e-01
4
# CELL(abcABC): 1000.00000  1000.00000  1000.00000    90.00000    90.00000    90.00000  Step:          32  Bead:       0 positions{angstrom}  cell{angstrom}
       O -3.13840e+00  1.05856e+00  3.46035e-01
       H -3.09140e+00  4.55076e-01  1.07806e+00
       H -2.67082e+00  1.85363e+00  4.65126e-01
       H -3.80666e+00  9.59078e-01 -3.50277e-01
4
# CELL(abcABC): 1000.00000  1000.00000  1000.00000    90.00000    90.00000    90.00000  Step:          33  Bead:       0 positions{angstrom}  cell{angstrom}
       O -3.13799e+00  1.05829e+00  3.43651e-01
       H -3.09471e+00  4.64598e-01  1.08391e+00
       H -2.66726e+00  1.83990e+00  4.75925e-01
       H -3.81337e+00  9.67448e-01 -3.29093e-01
4
# CELL(abcABC): 1000.00000  1000.00000  1000.00000    90.00000    90.00000    90.00000  Step:          34  Bead:       0 positions{angstrom}  cell{angstrom}
       O -3.13754e+00  1.05777e+00  3.41363e-01
       H -3.09829e+00  4.72764e-01  1.09014e+00
       H -2.66329e+00  1.83113e+00  4.86935e-01
       H -3.82104e+00  9.76284e-01 -3.10012e-01
4
# CELL(abcABC): 1000.00000  1000.00000  1000.00000    90.00000    90.00000    90.00000  Step:          35  Bead:       0 positions{angstrom}  cell{angstrom}
       O -3.13714e+00  1.05691e+00  3.39157e-01
       H -3.10101e+00  4.79546e-01  1.09592e+00
       H -2.65817e+00  1.82932e+00  4.98384e-01
       H -3.82977e+00  9.85107e-01 -2.92223e-01
4
# CELL(abcABC): 1000.00000  1000.00000  1000.00000    90.00000    90.00000    90.00000  Step:          36  Bead:       0 positions{angstrom}  cell{angstrom}
       O -3.13671e+00  1.05566e+00  3.37132e-01
       H -3.10448e+00  4.84979e-01  1.10117e+00
       H -2.65100e+00  1.83442e+00  5.08495e-01
       H -3.84026e+00  9.94281e-01 -2.75429e-01
4
# CELL(abcABC): 1000.00000  1000.00000  1000.00000    90.00000    90.00000    90.00000  Step:          37  Bead:       0 positions{angstrom}  cell{angstrom}
       O -3.13618e+00  1.05428e+00  3.35224e-01
       H -3.10836e+00  4.89889e-01  1.10791e+00
       H -2.64237e+00  1.84311e+00  5.17196e-01
       H -3.85335e+00  1.00272e+00 -2.60596e-01
4
# CELL(abcABC): 1000.00000  1000.00000  1000.00000    90.00000    90.00000    90.00000  Step:          38  Bead:       0 positions{angstrom}  cell{angstrom}
       O -3.13526e+00  1.05278e+00  3.33763e-01
       H -3.11432e+00  4.93417e-01  1.11282e+00
       H -2.63379e+00  1.85312e+00  5.24211e-01
       H -3.87061e+00  1.01297e+00 -2.49328e-01
4
# CELL(abcABC): 1000.00000  1000.00000  1000.00000    90.00000    90.00000    90.00000  Step:          39  Bead:       0 positions{angstrom}  cell{angstrom}
       O -3.13424e+00  1.05139e+00  3.32480e-01
       H -3.12064e+00  4.95336e-01  1.11740e+00
       H -2.62587e+00  1.86264e+00  5.30339e-01
       H -3.88845e+00  1.02358e+00 -2.39662e-01
4
# CELL(abcABC): 1000.00000  1000.00000  1000.00000    90.00000    90.00000    90.00000  Step:          40  Bead:       0 positions{angstrom}  cell{angstrom}
       O -3.13300e+00  1.05001e+00  3.31279e-01
       H -3.12794e+00  4.96598e-01  1.12183e+00
       H -2.61952e+00  1.87152e+00  5.36048e-01
       H -3.90718e+00  1.03528e+00 -2.30748e-01
4
# CELL(abcABC): 1000.00000  1000.00000  1000.00000    90.00000    90.00000    90.00000  Step:          41  Bead:       0 positions{angstrom}  cell{angstrom}
       O -3.13152e+00  1.04872e+00  3.30267e-01
       H -3.13650e+00  4.98049e-01  1.12448e+00
       H -2.61502e+00  1.87882e+00  5.39864e-01
       H -3.92659e+00  1.04706e+00 -2.21149e-01
4
# CELL(abcABC): 1000.00000  1000.00000  1000.00000    90.00000    90.00000    90.00000  Step:          42  Bead:       0 positions{angstrom}  cell{angstrom}
       O -3.12997e+00  1.04771e+00  3.29509e-01
       H -3.14442e+00  4.97255e-01  1.12537e+00
       H -2.61311e+00  1.88334e+00  5.41778e-01
       H -3.94524e+00  1.05932e+00 -2.11926e-01
4
# CELL(abcABC): 1000.00000  1000.00000  1000.00000    90.00000    90.00000    90.00000  Step:          43  Bead:       0 positions{angstrom}  cell{angstrom}
       O -3.12827e+00  1.04682e+00  3.28931e-01
       H -3.15326e+00  4.97033e-01  1.12440e+00
       H -2.61409e+00  1.88590e+00  5.41714e-01
       H -3.96228e+00  1.07110e+00 -2.01709e-01
4
# CELL(abcABC): 1000.00000  1000.00000  1000.00000    90.00000    90.00000    90.00000  Step:          44  Bead:       0 positions{angstrom}  cell{angstrom}
       O -3.12650e+00  1.04617e+00  3.28474e-01
       H -3.16233e+00  4.95932e-01  1.12144e+00
       H -2.61798e+00  1.88457e+00  5.39105e-01
       H -3.97748e+00  1.08394e+00 -1.88893e-01
4
# CELL(abcABC): 1000.00000  1000.00000  1000.00000    90.00000    90.00000    90.00000  Step:          45  Bead:       0 positions{angstrom}  cell{angstrom}
       O -3.12464e+00  1.04573e+00  3.28154e-01
       H -3.17219e+00  4.94746e-01  1.11669e+00
       H -2.62388e+00  1.87937e+00  5.33870e-01
       H -3.99117e+00  1.09730e+00 -1.73824e-01
4
# CELL(abcABC): 1000.00000  1000.00000  1000.00000    90.00000    90.00000    90.00000  Step:          46  Bead:       0 positions{angstrom}  cell{angstrom}
       O -3.12293e+00  1.04547e+00  3.27889e-01
       H -3.18208e+00  4.93879e-01  1.11078e+00
       H -2.63205e+00  1.87071e+00  5.26707e-01
       H -4.00033e+00  1.11085e+00 -1.56550e-01
4
# CELL(abcABC): 1000.00000  1000.00000  1000.00000    90.00000    90.00000    90.00000  Step:          47  Bead:       0 positions{angstrom}  cell{angstrom}
       O -3.12137e+00  1.04521e+00  3.27720e-01
       H -3.19162e+00  4.92289e-01  1.10488e+00
       H -2.64138e+00  1.86078e+00  5.17680e-01
       H -4.00625e+00  1.12653e+00 -1.38941e-01
4
# CELL(abcABC): 1000.00000  1000.00000  1000.00000    90.00000    90.00000    90.00000  Step:          48  Bead:       0 positions{angstrom}  cell{angstrom}
       O -3.12004e+00  1.04506e+00  3.27462e-01
       H -3.20011e+00  4.89071e-01  1.09951e+00
       H -2.65102e+00  1.85138e+00  5.07455e-01
       H -4.00915e+00  1.14154e+00 -1.19243e-01
4
# CELL(abcABC): 1000.00000  1000.00000  1000.00000    90.00000    90.00000    90.00000  Step:          49  Bead:       0 positions{angstrom}  cell{angstrom}
       O -3.11909e+00  1.04484e+00  3.26977e-01
       H -3.20770e+00  4.84738e-01  1.09523e+00
       H -2.65863e+00  1.84321e+00  4.97463e-01
       H -4.00915e+00  1.15756e+00 -9.72678e-02
4
# CELL(abcABC): 1000.00000  1000.00000  1000.00000    90.00000    90.00000    90.00000  Step:          50  Bead:       0 positions{angstrom}  cell{angstrom}
       O -3.11832e+00  1.04452e+00  3.26465e-01
       H -3.21457e+00  4.79958e-01  1.09129e+00
       H -2.66611e+00  1.83726e+00  4.88195e-01
       H -4.00694e+00  1.17334e+00 -7.59344e-02
4
# CELL(abcABC): 1000.00000  1000.00000  1000.00000    90.00000    90.00000    90.00000  Step:          51  Bead:       0 positions{angstrom}  cell{angstrom}
       O -3.11795e+00  1.04394e+00  3.25840e-01
       H -3.22057e+00  4.74321e-01  1.08759e+00
       H -2.67116e+00  1.83584e+00  4.79886e-01
       H -4.00178e+00  1.18955e+00 -5.40075e-02
4
# CELL(abcABC): 1000.00000  1000.00000  1000.00000    90.00000    90.00000    90.00000  Step:          52  Bead:       0 positions{angstrom}  cell{angstrom}
       O -3.11791e+00  1.04317e+00  3.25220e-01
       H -3.22562e+00  4.68188e-01  1.08456e+00
       H -2.67325e+00  1.83861e+00  4.71842e-01
       H -3.99522e+00  1.20518e+00 -3.30935e-02
4
# CELL(abcABC): 1000.00000  1000.00000  1000.00000    90.00000    90.00000    90.00000  Step:          53  Bead:       0 positions{angstrom}  cell{angstrom}
       O -3.11819e+00  1.04209e+00  3.24494e-01
       H -3.22859e+00  4.62524e-01  1.08122e+00
       H -2.67236e+00  1.84731e+00  4.65982e-01
       H -3.98881e+00  1.21939e+00 -1.23674e-02
4
# CELL(abcABC): 1000.00000  1000.00000  1000.00000    90.00000    90.00000    90.00000  Step:          54  Bead:       0 positions{angstrom}  cell{angstrom}
       O -3.11862e+00  1.04087e+00  3.23464e-01
       H -3.23003e+00  4.56060e-01  1.07960e+00
       H -2.66910e+00  1.85998e+00  4.62428e-01
       H -3.98374e+00  1.23246e+00  9.15739e-03
4
# CELL(abcABC): 1000.00000  1000.00000  1000.00000    90.00000    90.00000    90.00000  Step:          55  Bead:       0 positions{angstrom}  cell{angstrom}
       O -3.11916e+00  1.03955e+00  3.22400e-01
       H -3.23032e+00  4.50088e-01  1.07926e+00
       H -2.66376e+00  1.87419e+00  4.60946e-01
       H -3.98018e+00  1.24512e+00  2.78718e-02
4
# CELL(abcABC): 1000.00000  1000.00000  1000.00000    90.00000    90.00000    90.00000  Step:          56  Bead:       0 positions{angstrom}  cell{angstrom}
       O -3.11973e+00  1.03819e+00  3.21377e-01
       H -3.22658e+00  4.45011e-01  1.07981e+00
       H -2.65757e+00  1.88755e+00  4.59571e-01
       H -3.98113e+00  1.25851e+00  4.49254e-02
4
# CELL(abcABC): 1000.00000  1000.00000  1000.00000    90.00000    90.00000    90.00000  Step:          57  Bead:       0 positions{angstrom}  cell{angstrom}
       O -3.12018e+00  1.03686e+00  3.20376e-01
       H -3.21927e+00  4.41387e-01  1.08097e+00
       H -2.65222e+00  1.89810e+00  4.60183e-01
       H -3.98659e+00  1.27261e+00  5.90438e-02
4
# CELL(abcABC): 1000.00000  1000.00000  1000.00000    90.00000    90.00000    90.00000  Step:          58  Bead:       0 positions{angstrom}  cell{angstrom}
       O -3.12061e+00  1.03575e+00  3.19460e-01
       H -3.20887e+00  4.38048e-01  1.08185e+00
       H -2.64681e+00  1.90493e+00  4.62270e-01
       H -3.99567e+00  1.28674e+00  7.06118e-02
4
# CELL(abcABC): 1000.00000  1000.00000  1000.00000    90.00000    90.00000    90.00000  Step:          59  Bead:       0 positions{angstrom}  cell{angstrom}
       O -3.12103e+00  1.03485e+00  3.18512e-01
       H -3.19555e+00  4.35962e-01  1.08254e+00
       H -2.64174e+00  1.90763e+00  4.66662e-01
       H -4.00736e+00  1.30055e+00  8.05844e-02
4
# CELL(abcABC): 1000.00000  1000.00000  1000.00000    90.00000    90.00000    90.00000  Step:          60  Bead:       0 positions{angstrom}  cell{angstrom}
       O -3.12150e+00  1.03430e+00  3.17688e-01
       H -3.18140e+00  4.34676e-01  1.08287e+00
       H -2.63672e+00  1.90452e+00  4.70044e-01
       H -4.01902e+00  1.31362e+00  8.99486e-02
4
# CELL(abcABC): 1000.00000  1000.00000  1000.00000    90.00000    90.00000    90.00000  Step:          61  Bead:       0 positions{angstrom}  cell{angstrom}
       O -3.12216e+00  1.03415e+00  3.16962e-01
       H -3.16467e+00  4.34017e-01  1.08241e+00
       H -2.63126e+00  1.89586e+00  4.72566e-01
       H -4.03079e+00  1.32534e+00  9.94150e-02
4
# CELL(abcABC): 1000.00000  1000.00000  1000.00000    90.00000    90.00000    90.00000  Step:          62  Bead:       0 positions{angstrom}  cell{angstrom}
       O -3.12290e+00  1.03445e+00  3.16428e-01
       H -3.14726e+00  4.33600e-01  1.08090e+00
       H -2.62766e+00  1.88171e+00  4.74884e-01
       H -4.04009e+00  1.33511e+00  1.07093e-01
4
# CELL(abcABC): 1000.00000  1000.00000  1000.00000    90.00000    90.00000    90.00000  Step:          63  Bead:       0 positions{angstrom}  cell{angstrom}
       O -3.12379e+00  1.03499e+00  3.15787e-01
       H -3.12833e+00  4.35121e-01  1.07922e+00
       H -2.62471e+00  1.86261e+00  4.77275e-01
       H -4.04781e+00  1.34411e+00  1.16546e-01
4
# CELL(abcABC): 1000.00000  1000.00000  1000.00000    90.00000    90.00000    90.00000  Step:          64  Bead:       0 positions{angstrom}  cell{angstrom}
       O -3.12497e+00  1.03581e+00  3.15136e-01
       H -3.10730e+00  4.37730e-01  1.07795e+00
       H -2.62113e+00  1.84045e+00  4.79942e-01
       H -4.05358e+00  1.35071e+00  1.25489e-01
4
# CELL(abcABC): 1000.00000  1000.00000  1000.00000    90.00000    90.00000    90.00000  Step:          65  Bead:       0 positions{angstrom}  cell{angstrom}
       O -3.12647e+00  1.03675e+00  3.14522e-01
       H -3.08655e+00  4.41592e-01  1.07502e+00
       H -2.61574e+00  1.81848e+00  4.82734e-01
       H -4.05590e+00  1.35387e+00  1.35366e-01
4
# CELL(abcABC): 1000.00000  1000.00000  1000.00000    90.00000    90.00000    90.00000  Step:          66  Bead:       0 positions{angstrom}  cell{angstrom}
       O -3.12833e+00  1.03767e+00  3.13815e-01
       H -3.06579e+00  4.48363e-01  1.07233e+00
       H -2.60818e+00  1.79583e+00  4.86159e-01
       H -4.05478e+00  1.35507e+00  1.45852e-01
4
# CELL(abcABC): 1000.00000  1000.00000  1000.00000    90.00000    90.00000    90.00000  Step:          67  Bead:       0 positions{angstrom}  cell{angstrom}
       O -3.13045e+00  1.03865e+00  3.13083e-01
       H -3.04509e+00  4.54205e-01  1.06867e+00
       H -2.59716e+00  1.77595e+00  4.90421e-01
       H -4.05279e+00  1.35354e+00  1.56867e-01
4
# CELL(abcABC): 1000.00000  1000.00000  1000.00000    90.00000    90.00000    90.00000  Step:          68  Bead:       0 positions{angstrom}  cell{angstrom}
       O -3.13291e+00  1.03950e+00  3.12470e-01
       H -3.02447e+00  4.59177e-01  1.06478e+00
       H -2.58228e+00  1.76021e+00  4.93291e-01
       H -4.04922e+00  1.35091e+00  1.67625e-01
4
# CELL(abcABC): 1000.00000  1000.00000  1000.00000    90.00000    90.00000    90.00000  Step:          69  Bead:       0 positions{angstrom}  cell{angstrom}
       O -3.13554e+00  1.04033e+00  3.11660e-01
       H -3.00528e+00  4.61457e-01  1.06276e+00
       H -2.56453e+00  1.74925e+00  4.96959e-01
       H -4.04441e+00  1.34633e+00  1.78833e-01
4
# CELL(abcABC): 1000.00000  1000.00000  1000.00000    90.00000    90.00000    90.00000  Step:          70  Bead:       0 positions{angstrom}  cell{angstrom}
       O -3.13843e+00  1.04090e+00  3.10879e-01
       H -2.98716e+00  4.62864e-01  1.05992e+00
       H -2.54361e+00  1.74355e+00  4.99791e-01
       H -4.03760e+00  1.34154e+00  1.91246e-01
4
# CELL(abcABC): 1000.00000  1000.00000  1000.00000    90.00000    90.00000    90.00000  Step:          71  Bead:       0 positions{angstrom}  cell{angstrom}
       O -3.14120e+00  1.04146e+00  3.10243e-01
       H -2.97148e+00  4.61460e-01  1.05563e+00
       H -2.52141e+00  1.74090e+00  5.01034e-01
       H -4.03158e+00  1.33686e+00  2.04378e-01
4
# CELL(abcABC): 1000.00000  1000.00000  1000.00000    90.00000    90.00000    90.00000  Step:          72  Bead:       0 positions{angstrom}  cell{angstrom}
       O -3.14374e+00  1.04185e+00  3.09685e-01
       H -2.95748e+00  4.58471e-01  1.05141e+00
       H -2.49877e+00  1.74077e+00  5.01331e-01
       H -4.02796e+00  1.33374e+00  2.17163e-01
4
# CELL(abcABC): 1000.00000  1000.00000  1000.00000    90.00000    90.00000    90.00000  Step:          73  Bead:       0 positions{angstrom}  cell{angstrom}
       O -3.14579e+00  1.04226e+00  3.09368e-01
       H -2.94586e+00  4.53483e-01  1.04661e+00
       H -2.47750e+00  1.74209e+00  4.99489e-01
       H -4.02826e+00  1.33087e+00  2.28833e-01
4
# CELL(abcABC): 1000.00000  1000.00000  1000.00000    90.00000    90.00000    90.00000  Step:          74  Bead:       0 positions{angstrom}  cell{angstrom}
       O -3.14730e+00  1.04264e+00  3.09418e-01
       H -2.93636e+00  4.46843e-01  1.03983e+00
       H -2.45902e+00  1.74339e+00  4.93983e-01
       H -4.03224e+00  1.33015e+00  2.40329e-01
4
# CELL(abcABC): 1000.00000  1000.00000  1000.00000    90.00000    90.00000    90.00000  Step:          75  Bead:       0 positions{angstrom}  cell{angstrom}
       O -3.14802e+00  1.04313e+00  3.09690e-01
       H -2.92983e+00  4.37592e-01  1.03173e+00
       H -2.44508e+00  1.74317e+00  4.86579e-01
       H -4.04133e+00  1.33182e+00  2.51519e-01
4
# CELL(abcABC): 1000.00000  1000.00000  1000.00000    90.00000    90.00000    90.00000  Step:          76  Bead:       0 positions{angstrom}  cell{angstrom}
       O -3.14820e+00  1.04361e+00  3.10057e-01
       H -2.92497e+00  4.27132e-01  1.02385e+00
       H -2.43592e+00  1.74156e+00  4.76637e-01
       H -4.05251e+00  1.33636e+00  2.63513e-01
4
# CELL(abcABC): 1000.00000  1000.00000  1000.00000    90.00000    90.00000    90.00000  Step:          77  Bead:       0 positions{angstrom}  cell{angstrom}
       O -3.14774e+00  1.04418e+00  3.10595e-01
       H -2.92264e+00  4.16395e-01  1.01503e+00
       H -2.43219e+00  1.73856e+00  4.64834e-01
       H -4.06582e+00  1.34102e+00  2.75591e-01
4
# CELL(abcABC): 1000.00000  1000.00000  1000.00000    90.00000    90.00000    90.00000  Step:          78  Bead:       0 positions{angstrom}  cell{angstrom}
       O -3.14679e+00  1.04491e+00  3.11486e-01
       H -2.92383e+00  4.04028e-01  1.00432e+00
       H -2.43246e+00  1.73456e+00  4.50568e-01
       H -4.07950e+00  1.34587e+00  2.86421e-01
4
# CELL(abcABC): 1000.00000  1000.00000  1000.00000    90.00000    90.00000    90.00000  Step:          79  Bead:       0 positions{angstrom}  cell{angstrom}
       O -3.14559e+00  1.04588e+00  3.12511e-01
       H -2.92782e+00  3.91424e-01  9.93998e-01
       H -2.43576e+00  1.72832e+00  4.34235e-01
       H -4.09117e+00  1.34927e+00  2.96818e-01
4
# CELL(abcABC): 1000.00000  1000.00000  1000.00000    90.00000    90.00000    90.00000  Step:          80  Bead:       0 positions{angstrom}  cell{angstrom}
       O -3.14434e+00  1.04699e+00  3.13568e-01
       H -2.93332e+00  3.78586e-01  9.82877e-01
       H -2.44206e+00  1.72097e+00  4.17496e-01
       H -4.09930e+00  1.35174e+00  3.07901e-01
4
# CELL(abcABC): 1000.00000  1000.00000  1000.00000    90.00000    90.00000    90.00000  Step:          81  Bead:       0 positions{angstrom}  cell{angstrom}
       O -3.14313e+00  1.04805e+00  3.14801e-01
       H -2.93833e+00  3.66338e-01  9.70412e-01
       H -2.45117e+00  1.71548e+00  3.99928e-01
       H -4.10426e+00  1.35274e+00  3.18349e-01
4
# CELL(abcABC): 1000.00000  1000.00000  1000.00000    90.00000    90.00000    90.00000  Step:          82  Bead:       0 positions{angstrom}  cell{angstrom}
       O -3.14205e+00  1.04925e+00  3.16025e-01
       H -2.94389e+00  3.53386e-01  9.58155e-01
       H -2.46086e+00  1.70975e+00  3.81688e-01
       H -4.10617e+00  1.35233e+00  3.29429e-01
4
# CELL(abcABC): 1000.00000  1000.00000  1000.00000    90.00000    90.00000    90.00000  Step:          83  Bead:       0 positions{angstrom}  cell{angstrom}
       O -3.14126e+00  1.05032e+00  3.17314e-01
       H -2.95029e+00  3.40967e-01  9.45843e-01
       H -2.47006e+00  1.70650e+00  3.63205e-01
       H -4.10323e+00  1.35111e+00  3.39764e-01
4
# CELL(abcABC): 1000.00000  1000.00000  1000.00000    90.00000    90.00000    90.00000  Step:          84  Bead:       0 positions{angstrom}  cell{angstrom}
       O -3.14077e+00  1.05123e+00  3.18684e-01
       H -2.95614e+00  3.28115e-01  9.32112e-01
       H -2.47850e+00  1.70646e+00  3.44622e-01
       H -4.09659e+00  1.34951e+00  3.50325e-01
4
# CELL(abcABC): 1000.00000  1000.00000  1000.00000    90.00000    90.00000    90.00000  Step:          85  Bead:       0 positions{angstrom}  cell{angstrom}