14
# CELL(abcABC): 1000.00000  1000.00000  1000.00000    90.00000    90.00000    90.00000  Step:         109  Bead:       0 positions{angstrom}  cell{angstrom}
       C -6.07654e-01  6.78578e-01  9.85712e-02
       C  7.90863e-02 -5.93006e-01  7.40707e-01
       C -1.78425e+00  3.51201e-01 -8.99981e-01
       C -7.65882e-01  1.83510e+00  1.05150e+00
       H -1.44346e+00  1.71242e+00  1.89197e+00
       H -1.00848e+00  2.73968e+00  4.77828e-01
       H  2.25356e-01  1.94771e+00  1.52388e+00
       H -1.36003e+00 -2.86000e-01 -1.62535e+00
       H -2.10264e+00  1.28080e+00 -1.34631e+00
       H -2.55296e+00 -1.66939e-01 -3.46985e-01
       H  1.08426e+00 -3.65942e-01  1.15163e+00
       H  2.63250e-02 -1.46405e+00  6.65275e-02
       H -5.02392e-01 -9.22193e-01  1.60420e+00
       H  1.52249e-01  9.30835e-01 -9.07177e-01
