4
# CELL(abcABC): 1000.00000  1000.00000  1000.00000    90.00000    90.00000    90.00000  Step:           0  Bead:       0 positions{angstrom}  cell{angstrom}
       O -3.14007e+00  1.07022e+00  3.53411e-01
       H -3.84651e+00  5.42283e-01 -6.83693e-02
       H -2.36806e+00  5.37156e-01  4.42912e-01
       H -3.32791e+00  2.00323e+00  7.01290e-01
4
# CELL(abcABC): 1000.00000  1000.00000  1000.00000    90.00000    90.00000    90.00000  Step:           1  Bead:       0 positions{angstrom}  cell{angstrom}
       O -3.13853e+00  1.07046e+00  3.52818e-01
       H -3.85560e+00  5.35656e-01 -6.39000e-02
       H -2.36642e+00  5.35859e-01  4.44103e-01
       H -3.34490e+00  2.00742e+00  7.05040e-01
4
# CELL(abcABC): 1000.00000  1000.00000  1000.00000    90.00000    90.00000    90.00000  Step:           2  Bead:       0 positions{angstrom}  cell{angstrom}
       O -3.13741e+00  1.07056e+00  3.52106e-01
       H -3.86284e+00  5.30850e-01 -5.80580e-02
       H -2.36040e+00  5.33394e-01  4.45389e-01
       H -3.36147e+00  2.01305e+00  7.09217e-01
4
# CELL(abcABC): 1000.00000  1000.00000  1000.00000    90.00000    90.00000    90.00000  Step:           3  Bead:       0 positions{angstrom}  cell{angstrom}
       O -3.13658e+00  1.07058e+00  3.51211e-01
       H -3.86699e+00  5.26696e-01 -4.93331e-02
       H -2.35259e+00  5.31380e-01  4.47377e-01
       H -3.37834e+00  2.01895e+00  7.12708e-01
4
# CELL(abcABC): 1000.00000  1000.00000  1000.00000    90.00000    90.00000    90.00000  Step:           4  Bead:       0 positions{angstrom}  cell{angstrom}
       O -3.13606e+00  1.07052e+00  3.50311e-01
       H -3.86863e+00  5.23124e-01 -4.05597e-02
       H -2.34299e+00  5.30010e-01  4.48946e-01
       H -3.39455e+00  2.02474e+00  7.16660e-01
4
# CELL(abcABC): 1000.00000  1000.00000  1000.00000    90.00000    90.00000    90.00000  Step:           5  Bead:       0 positions{angstrom}  cell{angstrom}
       O -3.13568e+00  1.07024e+00  3.49393e-01
       H -3.86830e+00  5.21155e-01 -3.10003e-02
       H -2.33387e+00  5.30459e-01  4.51483e-01
       H -3.41006e+00  2.03074e+00  7.19130e-01
4
# CELL(abcABC): 1000.00000  1000.00000  1000.00000    90.00000    90.00000    90.00000  Step:           6  Bead:       0 positions{angstrom}  cell{angstrom}
       O -3.13536e+00  1.06994e+00  3.48487e-01
       H -3.86534e+00  5.20681e-01 -2.15379e-02
       H -2.32604e+00  5.30466e-01  4.52921e-01
       H -3.42582e+00  2.03604e+00  7.22612e-01
4
# CELL(abcABC): 1000.00000  1000.00000  1000.00000    90.00000    90.00000    90.00000  Step:           7  Bead:       0 positions{angstrom}  cell{angstrom}
       O -3.13521e+00  1.06946e+00  3.47397e-01
       H -3.85881e+00  5.20966e-01 -1.02544e-02
       H -2.31974e+00  5.31591e-01  4.54996e-01
       H -3.44104e+00  2.04214e+00  7.26552e-01
4
# CELL(abcABC): 1000.00000  1000.00000  1000.00000    90.00000    90.00000    90.00000  Step:           8  Bead:       0 positions{angstrom}  cell{angstrom}
       O -3.13519e+00  1.06898e+00  3.46407e-01
       H -3.84992e+00  5.21292e-01  4.36916e-04
       H -2.31427e+00  5.33432e-01  4.56245e-01
       H -3.45571e+00  2.04762e+00  7.30328e-01
4
# CELL(abcABC): 1000.00000  1000.00000  1000.00000    90.00000    90.00000    90.00000  Step:           9  Bead:       0 positions{angstrom}  cell{angstrom}
       O -3.13519e+00  1.06863e+00  3.45374e-01
       H -3.84055e+00  5.19944e-01  1.17677e-02
       H -2.30989e+00  5.37123e-01  4.57886e-01
       H -3.46954e+00  2.05091e+00  7.33760e-01
4
# CELL(abcABC): 1000.00000  1000.00000  1000.00000    90.00000    90.00000    90.00000  Step:          10  Bead:       0 positions{angstrom}  cell{angstrom}
       O -3.13509e+00  1.06830e+00  3.44584e-01
       H -3.83154e+00  5.16870e-01  2.13087e-02
       H -2.30763e+00  5.43184e-01  4.58582e-01
       H -3.48239e+00  2.05302e+00  7.36061e-01
4
# CELL(abcABC): 1000.00000  1000.00000  1000.00000    90.00000    90.00000    90.00000  Step:          11  Bead:       0 positions{angstrom}  cell{angstrom}
       O -3.13485e+00  1.06816e+00  3.44089e-01
       H -3.82354e+00  5.12109e-01  2.80664e-02
       H -2.30878e+00  5.50481e-01  4.58668e-01
       H -3.49300e+00  2.05281e+00  7.37077e-01
4
# CELL(abcABC): 1000.00000  1000.00000  1000.00000    90.00000    90.00000    90.00000  Step:          12  Bead:       0 positions{angstrom}  cell{angstrom}
       O -3.13462e+00  1.06829e+00  3.43839e-01
       H -3.81596e+00  5.04367e-01  3.27288e-02
       H -2.31167e+00  5.57733e-01  4.57621e-01
       H -3.50129e+00  2.05124e+00  7.37417e-01
4
# CELL(abcABC): 1000.00000  1000.00000  1000.00000    90.00000    90.00000    90.00000  Step:          13  Bead:       0 positions{angstrom}  cell{angstrom}
       O -3.13438e+00  1.06869e+00  3.43744e-01
       H -3.81026e+00  4.94324e-01  3.57812e-02
       H -2.31424e+00  5.65626e-01  4.56557e-01
       H -3.50827e+00  2.04708e+00  7.36950e-01
4
# CELL(abcABC): 1000.00000  1000.00000  1000.00000    90.00000    90.00000    90.00000  Step:          14  Bead:       0 positions{angstrom}  cell{angstrom}
       O -3.13418e+00  1.06932e+00  3.43764e-01
       H -3.80497e+00  4.81377e-01  3.75534e-02
       H -2.31658e+00  5.74547e-01  4.55569e-01
       H -3.51437e+00  2.04105e+00  7.35845e-01
4
# CELL(abcABC): 1000.00000  1000.00000  1000.00000    90.00000    90.00000    90.00000  Step:          15  Bead:       0 positions{angstrom}  cell{angstrom}
       O -3.13397e+00  1.07007e+00  3.43686e-01
       H -3.80304e+00  4.65837e-01  4.00927e-02
       H -2.31904e+00  5.84091e-01  4.55028e-01
       H -3.51716e+00  2.03505e+00  7.35078e-01
4
# CELL(abcABC): 1000.00000  1000.00000  1000.00000    90.00000    90.00000    90.00000  Step:          16  Bead:       0 positions{angstrom}  cell{angstrom}
       O -3.13396e+00  1.07094e+00  3.43678e-01
       H -3.80072e+00  4.48726e-01  4.13881e-02
       H -2.32041e+00  5.94480e-01  4.54954e-01
       H -3.51839e+00  2.02801e+00  7.33983e-01
4
# CELL(abcABC): 1000.00000  1000.00000  1000.00000    90.00000    90.00000    90.00000  Step:          17  Bead:       0 positions{angstrom}  cell{angstrom}
       O -3.13408e+00  1.07193e+00  3.43690e-01
       H -3.79758e+00  4.31840e-01  4.24734e-02
       H -2.32083e+00  6.05039e-01  4.54447e-01
       H -3.51917e+00  2.01870e+00  7.33223e-01
4
# CELL(abcABC): 1000.00000  1000.00000  1000.00000    90.00000    90.00000    90.00000  Step:          18  Bead:       0 positions{angstrom}  cell{angstrom}
       O -3.13446e+00  1.07288e+00  3.43685e-01
       H -3.79467e+00  4.16444e-01  4.37008e-02
       H -2.31756e+00  6.14868e-01  4.54473e-01
       H -3.51928e+00  2.00907e+00  7.32049e-01
4
# CELL(abcABC): 1000.00000  1000.00000  1000.00000    90.00000    90.00000    90.00000  Step:          19  Bead:       0 positions{angstrom}  cell{angstrom}
       O -3.13526e+00  1.07388e+00  3.43622e-01
       H -3.78998e+00  4.02358e-01  4.56594e-02
       H -2.31233e+00  6.23385e-01  4.54442e-01
       H -3.51650e+00  1.99877e+00  7.31110e-01
4
# CELL(abcABC): 1000.00000  1000.00000  1000.00000    90.00000    90.00000    90.00000  Step:          20  Bead:       0 positions{angstrom}  cell{angstrom}
       O -3.13638e+00  1.07486e+00  3.43566e-01
       H -3.78351e+00  3.90728e-01  4.66652e-02
       H -2.30553e+00  6.31441e-01  4.55205e-01
       H -3.51208e+00  1.98689e+00  7.30244e-01
4
# CELL(abcABC): 1000.00000  1000.00000  1000.00000    90.00000    90.00000    90.00000  Step:          21  Bead:       0 positions{angstrom}  cell{angstrom}
       O -3.13785e+00  1.07569e+00  3.43527e-01
       H -3.77564e+00  3.80955e-01  4.69829e-02
       H -2.29507e+00  6.39802e-01  4.57382e-01
       H -3.50697e+00  1.97502e+00  7.28359e-01
4
# CELL(abcABC): 1000.00000  1000.00000  1000.00000    90.00000    90.00000    90.00000  Step:          22  Bead:       0 positions{angstrom}  cell{angstrom}
       O -3.13961e+00  1.07625e+00  3.43537e-01
       H -3.76713e+00  3.72839e-01  4.87262e-02
       H -2.28125e+00  6.48667e-01  4.58256e-01
       H -3.50137e+00  1.96549e+00  7.25577e-01
4
# CELL(abcABC): 1000.00000  1000.00000  1000.00000    90.00000    90.00000    90.00000  Step:          23  Bead:       0 positions{angstrom}  cell{angstrom}
       O -3.14152e+00  1.07651e+00  3.43701e-01
       H -3.75690e+00  3.67786e-01  5.03422e-02
       H -2.26643e+00  6.58867e-01  4.59589e-01
       H -3.49606e+00  1.95611e+00  7.20024e-01
4
# CELL(abcABC): 1000.00000  1000.00000  1000.00000    90.00000    90.00000    90.00000  Step:          24  Bead:       0 positions{angstrom}  cell{angstrom}
       O -3.14346e+00  1.07636e+00  3.43852e-01
       H -3.74494e+00  3.64003e-01  5.21661e-02
       H -2.25227e+00  6.71496e-01  4.61021e-01
       H -3.49142e+00  1.94975e+00  7.14379e-01
4
# CELL(abcABC): 1000.00000  1000.00000  1000.00000    90.00000    90.00000    90.00000  Step:          25  Bead:       0 positions{angstrom}  cell{angstrom}
       O -3.14524e+00  1.07594e+00  3.43903e-01
       H -3.73243e+00  3.61003e-01  5.48750e-02
       H -2.24054e+00  6.85167e-01  4.62306e-01
       H -3.48750e+00  1.94566e+00  7.09570e-01
4
# CELL(abcABC): 1000.00000  1000.00000  1000.00000    90.00000    90.00000    90.00000  Step:          26  Bead:       0 positions{angstrom}  cell{angstrom}
       O -3.14677e+00  1.07528e+00  3.43934e-01
       H -3.71994e+00  3.58472e-01  5.67128e-02
       H -2.23131e+00  7.00368e-01  4.62925e-01
       H -3.48487e+00  1.94350e+00  7.06631e-01
4
# CELL(abcABC): 1000.00000  1000.00000  1000.00000    90.00000    90.00000    90.00000  Step:          27  Bead:       0 positions{angstrom}  cell{angstrom}
       O -3.14810e+00  1.07431e+00  3.44011e-01
       H -3.70826e+00  3.57307e-01  5.74461e-02
       H -2.22532e+00  7.16507e-01  4.62645e-01
       H -3.48151e+00  1.94390e+00  7.04950e-01
4
# CELL(abcABC): 1000.00000  1000.00000  1000.00000    90.00000    90.00000    90.00000  Step:          28  Bead:       0 positions{angstrom}  cell{angstrom}
       O -3.14900e+00  1.07312e+00  3.44069e-01
       H -3.69888e+00  3.54242e-01  5.72843e-02
       H -2.22214e+00  7.34358e-01  4.61991e-01
       H -3.47964e+00  1.94809e+00  7.04850e-01
4
# CELL(abcABC): 1000.00000  1000.00000  1000.00000    90.00000    90.00000    90.00000  Step:          29  Bead:       0 positions{angstrom}  cell{angstrom}
       O -3.14957e+00  1.07171e+00  3.44203e-01
       H -3.69036e+00  3.50601e-01  5.47621e-02
       H -2.22311e+00  7.53432e-01  4.60681e-01
       H -3.47813e+00  1.95492e+00  7.06547e-01
4
# CELL(abcABC): 1000.00000  1000.00000  1000.00000    90.00000    90.00000    90.00000  Step:          30  Bead:       0 positions{angstrom}  cell{angstrom}
       O -3.14982e+00  1.07010e+00  3.44379e-01
       H -3.68317e+00  3.46729e-01  5.19278e-02
       H -2.22690e+00  7.73270e-01  4.59159e-01
       H -3.47765e+00  1.96450e+00  7.08107e-01
4
# CELL(abcABC): 1000.00000  1000.00000  1000.00000    90.00000    90.00000    90.00000  Step:          31  Bead:       0 positions{angstrom}  cell{angstrom}
       O -3.14994e+00  1.06836e+00  3.44706e-01
       H -3.67616e+00  3.41558e-01  4.81496e-02
       H -2.23166e+00  7.94484e-01  4.56444e-01
       H -3.47796e+00  1.97623e+00  7.09416e-01
4
# CELL(abcABC): 1000.00000  1000.00000  1000.00000    90.00000    90.00000    90.00000  Step:          32  Bead:       0 positions{angstrom}  cell{angstrom}
       O -3.14988e+00  1.06675e+00  3.44956e-01
       H -3.67171e+00  3.32962e-01  4.38565e-02
       H -2.23621e+00  8.16637e-01  4.54468e-01
       H -3.47886e+00  1.98812e+00  7.11723e-01
4
# CELL(abcABC): 1000.00000  1000.00000  1000.00000    90.00000    90.00000    90.00000  Step:          33  Bead:       0 positions{angstrom}  cell{angstrom}
       O -3.14976e+00  1.06539e+00  3.45195e-01
       H -3.66900e+00  3.22465e-01  3.98747e-02
       H -2.23934e+00  8.36894e-01  4.52617e-01
       H -3.48026e+00  2.00005e+00  7.13757e-01
4
# CELL(abcABC): 1000.00000  1000.00000  1000.00000    90.00000    90.00000    90.00000  Step:          34  Bead:       0 positions{angstrom}  cell{angstrom}
       O -3.14959e+00  1.06420e+00  3.45623e-01
       H -3.66644e+00  3.11171e-01  3.51042e-02
       H -2.24210e+00  8.55252e-01  4.50818e-01
       H -3.48277e+00  2.01182e+00  7.13538e-01
4
# CELL(abcABC): 1000.00000  1000.00000  1000.00000    90.00000    90.00000    90.00000  Step:          35  Bead:       0 positions{angstrom}  cell{angstrom}
       O -3.14965e+00  1.06313e+00  3.46136e-01
       H -3.66208e+00  2.99903e-01  2.92612e-02
       H -2.24283e+00  8.72742e-01  4.49482e-01
       H -3.48550e+00  2.02249e+00  7.12569e-01
4
# CELL(abcABC): 1000.00000  1000.00000  1000.00000    90.00000    90.00000    90.00000  Step:          36  Bead:       0 positions{angstrom}  cell{angstrom}
       O -3.15002e+00  1.06214e+00  3.46746e-01
       H -3.65682e+00  2.89419e-01  2.28207e-02
       H -2.23945e+00  8.89493e-01  4.47120e-01
       H -3.48832e+00  2.03200e+00  7.11682e-01
4
# CELL(abcABC): 1000.00000  1000.00000  1000.00000    90.00000    90.00000    90.00000  Step:          37  Bead:       0 positions{angstrom}  cell{angstrom}
       O -3.15076e+00  1.06135e+00  3.47320e-01
       H -3.64980e+00  2.81096e-01  1.82886e-02
       H -2.23157e+00  9.03550e-01  4.44000e-01
       H -3.49149e+00  2.03888e+00  7.10229e-01
4
# CELL(abcABC): 1000.00000  1000.00000  1000.00000    90.00000    90.00000    90.00000  Step:          38  Bead:       0 positions{angstrom}  cell{angstrom}
       O -3.15162e+00  1.06068e+00  3.48134e-01
       H -3.64243e+00  2.74192e-01  1.28473e-02
       H -2.22038e+00  9.14495e-01  4.40170e-01
       H -3.49637e+00  2.04537e+00  7.06586e-01
4
# CELL(abcABC): 1000.00000  1000.00000  1000.00000    90.00000    90.00000    90.00000  Step:          39  Bead:       0 positions{angstrom}  cell{angstrom}
       O -3.15285e+00  1.06026e+00  3.48921e-01
       H -3.63285e+00  2.68557e-01  8.30432e-03
       H -2.20684e+00  9.22433e-01  4.36647e-01
       H -3.49993e+00  2.04973e+00  7.02151e-01
4
# CELL(abcABC): 1000.00000  1000.00000  1000.00000    90.00000    90.00000    90.00000  Step:          40  Bead:       0 positions{angstrom}  cell{angstrom}
       O -3.15422e+00  1.05991e+00  3.49601e-01
       H -3.62182e+00  2.64973e-01  5.15528e-03
       H -2.19277e+00  9.28907e-01  4.34038e-01
       H -3.50329e+00  2.05249e+00  6.97113e-01
4
# CELL(abcABC): 1000.00000  1000.00000  1000.00000    90.00000    90.00000    90.00000  Step:          41  Bead:       0 positions{angstrom}  cell{angstrom}
       O -3.15556e+00  1.05963e+00  3.50306e-01
       H -3.60988e+00  2.63852e-01  1.96134e-03
       H -2.17951e+00  9.34396e-01  4.30965e-01
       H -3.50724e+00  2.05257e+00  6.92195e-01
4
# CELL(abcABC): 1000.00000  1000.00000  1000.00000    90.00000    90.00000    90.00000  Step:          42  Bead:       0 positions{angstrom}  cell{angstrom}
       O -3.15686e+00  1.05959e+00  3.51145e-01
       H -3.59561e+00  2.62227e-01 -1.32927e-03
       H -2.16888e+00  9.38789e-01  4.27454e-01
       H -3.51146e+00  2.05035e+00  6.85674e-01
4
# CELL(abcABC): 1000.00000  1000.00000  1000.00000    90.00000    90.00000    90.00000  Step:          43  Bead:       0 positions{angstrom}  cell{angstrom}
       O -3.15790e+00  1.05962e+00  3.52086e-01
       H -3.58109e+00  2.62370e-01 -4.90926e-03
       H -2.16211e+00  9.43587e-01  4.23405e-01
       H -3.51619e+00  2.04501e+00  6.78366e-01
4
# CELL(abcABC): 1000.00000  1000.00000  1000.00000    90.00000    90.00000    90.00000  Step:          44  Bead:       0 positions{angstrom}  cell{angstrom}
       O -3.15860e+00  1.05981e+00  3.53121e-01
       H -3.56626e+00  2.62296e-01 -9.26525e-03
       H -2.15992e+00  9.47219e-01  4.18186e-01
       H -3.52218e+00  2.03832e+00  6.71512e-01
4
# CELL(abcABC): 1000.00000  1000.00000  1000.00000    90.00000    90.00000    90.00000  Step:          45  Bead:       0 positions{angstrom}  cell{angstrom}
       O -3.15883e+00  1.06018e+00  3.54311e-01
       H -3.55224e+00  2.62407e-01 -1.46237e-02
       H -2.16183e+00  9.49612e-01  4.11572e-01
       H -3.53054e+00  2.03003e+00  6.64604e-01
4
# CELL(abcABC): 1000.00000  1000.00000  1000.00000    90.00000    90.00000    90.00000  Step:          46  Bead:       0 positions{angstrom}  cell{angstrom}
       O -3.15874e+00  1.06070e+00  3.55622e-01
       H -3.53887e+00  2.62920e-01 -2.08886e-02
       H -2.16839e+00  9.50677e-01  4.04035e-01
       H -3.53886e+00  2.02014e+00  6.57598e-01
4
# CELL(abcABC): 1000.00000  1000.00000  1000.00000    90.00000    90.00000    90.00000  Step:          47  Bead:       0 positions{angstrom}  cell{angstrom}
       O -3.15828e+00  1.06123e+00  3.57134e-01
       H -3.52626e+00  2.62778e-01 -2.74675e-02
       H -2.17856e+00  9.51608e-01  3.95343e-01
       H -3.54865e+00  2.01097e+00  6.48868e-01
4
# CELL(abcABC): 1000.00000  1000.00000  1000.00000    90.00000    90.00000    90.00000  Step:          48  Bead:       0 positions{angstrom}  cell{angstrom}
       O -3.15751e+00  1.06193e+00  3.58694e-01
       H -3.51413e+00  2.61177e-01 -3.43302e-02
       H -2.19127e+00  9.52883e-01  3.85797e-01
       H -3.56021e+00  2.00016e+00  6.40511e-01
4
# CELL(abcABC): 1000.00000  1000.00000  1000.00000    90.00000    90.00000    90.00000  Step:          49  Bead:       0 positions{angstrom}  cell{angstrom}
       O -3.15660e+00  1.06268e+00  3.60170e-01
       H -3.50299e+00  2.58836e-01 -4.10987e-02
       H -2.20366e+00  9.53716e-01  3.76436e-01
       H -3.57342e+00  1.98979e+00  6.33204e-01
4
# CELL(abcABC): 1000.00000  1000.00000  1000.00000    90.00000    90.00000    90.00000  Step:          50  Bead:       0 positions{angstrom}  cell{angstrom}
       O -3.15543e+00  1.06350e+00  3.61745e-01
       H -3.49331e+00  2.56616e-01 -4.84732e-02
       H -2.21689e+00  9.53745e-01  3.67387e-01
       H -3.58838e+00  1.97897e+00  6.24636e-01
4
# CELL(abcABC): 1000.00000  1000.00000  1000.00000    90.00000    90.00000    90.00000  Step:          51  Bead:       0 positions{angstrom}  cell{angstrom}
       O -3.15432e+00  1.06427e+00  3.63301e-01
       H -3.48519e+00  2.54366e-01 -5.63810e-02
       H -2.22756e+00  9.54074e-01  3.58549e-01
       H -3.60362e+00  1.96871e+00  6.16679e-01
4
# CELL(abcABC): 1000.00000  1000.00000  1000.00000    90.00000    90.00000    90.00000  Step:          52  Bead:       0 positions{angstrom}  cell{angstrom}
       O -3.15332e+00  1.06504e+00  3.64907e-01
       H -3.47868e+00  2.52728e-01 -6.40978e-02
       H -2.23383e+00  9.53908e-01  3.49008e-01
       H -3.61959e+00  1.95826e+00  6.08438e-01
4
# CELL(abcABC): 1000.00000  1000.00000  1000.00000    90.00000    90.00000    90.00000  Step:          53  Bead:       0 positions{angstrom}  cell{angstrom}
       O -3.15257e+00  1.06565e+00  3.66392e-01
       H -3.47280e+00  2.52874e-01 -7.22540e-02
       H -2.23464e+00  9.55380e-01  3.40587e-01
       H -3.63656e+00  1.94699e+00  6.01450e-01
4
# CELL(abcABC): 1000.00000  1000.00000  1000.00000    90.00000    90.00000    90.00000  Step:          54  Bead:       0 positions{angstrom}  cell{angstrom}
       O -3.15204e+00  1.06617e+00  3.67495e-01
       H -3.46820e+00  2.53682e-01 -7.86005e-02
       H -2.22987e+00  9.58001e-01  3.33501e-01
       H -3.65439e+00  1.93532e+00  5.97367e-01
4
# CELL(abcABC): 1000.00000  1000.00000  1000.00000    90.00000    90.00000    90.00000  Step:          55  Bead:       0 positions{angstrom}  cell{angstrom}
       O -3.15176e+00  1.06650e+00  3.68416e-01
       H -3.46534e+00  2.56336e-01 -8.32353e-02
       H -2.21970e+00  9.61418e-01  3.27743e-01
       H -3.67193e+00  1.92397e+00  5.93148e-01
4
# CELL(abcABC): 1000.00000  1000.00000  1000.00000    90.00000    90.00000    90.00000  Step:          56  Bead:       0 positions{angstrom}  cell{angstrom}
       O -3.15166e+00  1.06657e+00  3.69167e-01
       H -3.46138e+00  2.60906e-01 -8.62422e-02
       H -2.20599e+00  9.65521e-01  3.21649e-01
       H -3.69115e+00  1.91411e+00  5.90327e-01
4
# CELL(abcABC): 1000.00000  1000.00000  1000.00000    90.00000    90.00000    90.00000  Step:          57  Bead:       0 positions{angstrom}  cell{angstrom}
       O -3.15156e+00  1.06639e+00  3.69698e-01
       H -3.45692e+00  2.67359e-01 -8.77893e-02
       H -2.19160e+00  9.70351e-01  3.17426e-01
       H -3.71163e+00  1.90575e+00  5.87669e-01
4
# CELL(abcABC): 1000.00000  1000.00000  1000.00000    90.00000    90.00000    90.00000  Step:          58  Bead:       0 positions{angstrom}  cell{angstrom}
       O -3.15143e+00  1.06607e+00  3.70074e-01
       H -3.45247e+00  2.73724e-01 -8.88220e-02
       H -2.17692e+00  9.76509e-01  3.14873e-01
       H -3.73278e+00  1.89835e+00  5.85285e-01
4
# CELL(abcABC): 1000.00000  1000.00000  1000.00000    90.00000    90.00000    90.00000  Step:          59  Bead:       0 positions{angstrom}  cell{angstrom}
       O -3.15117e+00  1.06557e+00  3.70199e-01
       H -3.44823e+00  2.80159e-01 -8.94087e-02
       H -2.16363e+00  9.84585e-01  3.15101e-01
       H -3.75439e+00  1.89179e+00  5.83666e-01
4
# CELL(abcABC): 1000.00000  1000.00000  1000.00000    90.00000    90.00000    90.00000  Step:          60  Bead:       0 positions{angstrom}  cell{angstrom}
       O -3.15071e+00  1.06505e+00  3.70263e-01
       H -3.44620e+00  2.85411e-01 -8.99568e-02
       H -2.15255e+00  9.93444e-01  3.15042e-01
       H -3.77489e+00  1.88590e+00  5.83254e-01
4
# CELL(abcABC): 1000.00000  1000.00000  1000.00000    90.00000    90.00000    90.00000  Step:          61  Bead:       0 positions{angstrom}  cell{angstrom}
       O -3.15005e+00  1.06457e+00  3.70274e-01
       H -3.44446e+00  2.88719e-01 -9.11222e-02
       H -2.14416e+00  1.00334e+00  3.14999e-01
       H -3.79536e+00  1.88029e+00  5.84277e-01
4
# CELL(abcABC): 1000.00000  1000.00000  1000.00000    90.00000    90.00000    90.00000  Step:          62  Bead:       0 positions{angstrom}  cell{angstrom}
       O -3.14903e+00  1.06423e+00  3.70357e-01
       H -3.44459e+00  2.89411e-01 -9.33002e-02
       H -2.14155e+00  1.01382e+00  3.15720e-01
       H -3.81408e+00  1.87454e+00  5.84416e-01
4
# CELL(abcABC): 1000.00000  1000.00000  1000.00000    90.00000    90.00000    90.00000  Step:          63  Bead:       0 positions{angstrom}  cell{angstrom}
       O -3.14768e+00  1.06386e+00  3.70232e-01
       H -3.44526e+00  2.89356e-01 -9.55377e-02
       H -2.14402e+00  1.02438e+00  3.17461e-01
       H -3.83244e+00  1.86992e+00  5.86906e-01
4
# CELL(abcABC): 1000.00000  1000.00000  1000.00000    90.00000    90.00000    90.00000  Step:          64  Bead:       0 positions{angstrom}  cell{angstrom}
       O -3.14614e+00  1.06357e+00  3.70013e-01
       H -3.44534e+00  2.88082e-01 -9.72274e-02
       H -2.15050e+00  1.03532e+00  3.20320e-01
       H -3.85035e+00  1.86478e+00  5.89208e-01
4
# CELL(abcABC): 1000.00000  1000.00000  1000.00000    90.00000    90.00000    90.00000  Step:          65  Bead:       0 positions{angstrom}  cell{angstrom}
       O -3.14446e+00  1.06333e+00  3.69765e-01
       H -3.44656e+00  2.86227e-01 -1.00315e-01
       H -2.15985e+00  1.04791e+00  3.23995e-01
       H -3.86634e+00  1.85798e+00  5.92560e-01
4
# CELL(abcABC): 1000.00000  1000.00000  1000.00000    90.00000    90.00000    90.00000  Step:          66  Bead:       0 positions{angstrom}  cell{angstrom}
       O -3.14278e+00  1.06306e+00  3.69367e-01
       H -3.44796e+00  2.86261e-01 -1.02812e-01
       H -2.17132e+00  1.05929e+00  3.28826e-01
       H -3.88015e+00  1.85077e+00  5.96539e-01
4
# CELL(abcABC): 1000.00000  1000.00000  1000.00000    90.00000    90.00000    90.00000  Step:          67  Bead:       0 positions{angstrom}  cell{angstrom}
       O -3.14113e+00  1.06295e+00  3.68911e-01
       H -3.44894e+00  2.85094e-01 -1.06120e-01
       H -2.18297e+00  1.07092e+00  3.34885e-01
       H -3.89371e+00  1.84203e+00  6.01038e-01
4
# CELL(abcABC): 1000.00000  1000.00000  1000.00000    90.00000    90.00000    90.00000  Step:          68  Bead:       0 positions{angstrom}  cell{angstrom}
       O -3.13974e+00  1.06287e+00  3.68544e-01
       H -3.44885e+00  2.83678e-01 -1.09567e-01
       H -2.19321e+00  1.08275e+00  3.39924e-01
       H -3.90560e+00  1.83298e+00  6.05270e-01
4
# CELL(abcABC): 1000.00000  1000.00000  1000.00000    90.00000    90.00000    90.00000  Step:          69  Bead:       0 positions{angstrom}  cell{angstrom}
       O -3.13865e+00  1.06295e+00  3.67942e-01
       H -3.44839e+00  2.81003e-01 -1.11075e-01
       H -2.20142e+00  1.09480e+00  3.46302e-01
       H -3.91524e+00  1.82230e+00  6.09954e-01
4
# CELL(abcABC): 1000.00000  1000.00000  1000.00000    90.00000    90.00000    90.00000  Step:          70  Bead:       0 positions{angstrom}  cell{angstrom}
       O -3.13817e+00  1.06293e+00  3.67287e-01
       H -3.44654e+00  2.79366e-01 -1.13053e-01
       H -2.20536e+00  1.10779e+00  3.52727e-01
       H -3.92078e+00  1.81122e+00  6.15899e-01
4
# CELL(abcABC): 1000.00000  1000.00000  1000.00000    90.00000    90.00000    90.00000  Step:          71  Bead:       0 positions{angstrom}  cell{angstrom}
       O -3.13815e+00  1.06301e+00  3.66646e-01
       H -3.44417e+00  2.77118e-01 -1.15910e-01
       H -2.20507e+00  1.12049e+00  3.58959e-01
       H -3.92371e+00  1.79947e+00  6.22695e-01
4
# CELL(abcABC): 1000.00000  1000.00000  1000.00000    90.00000    90.00000    90.00000  Step:          72  Bead:       0 positions{angstrom}  cell{angstrom}
       O -3.13868e+00  1.06300e+00  3.65899e-01
       H -3.44007e+00  2.75738e-01 -1.17878e-01
       H -2.20010e+00  1.13356e+00  3.66143e-01
       H -3.92437e+00  1.78801e+00  6.29348e-01
4
# CELL(abcABC): 1000.00000  1000.00000  1000.00000    90.00000    90.00000    90.00000  Step:          73  Bead:       0 positions{angstrom}  cell{angstrom}
       O -3.13961e+00  1.06302e+00  3.65166e-01
       H -3.43463e+00  2.74741e-01 -1.19398e-01
       H -2.19172e+00  1.14715e+00  3.73534e-01
       H -3.92344e+00  1.77513e+00  6.35104e-01
4
# CELL(abcABC): 1000.00000  1000.00000  1000.00000    90.00000    90.00000    90.00000  Step:          74  Bead:       0 positions{angstrom}  cell{angstrom}
       O -3.14090e+00  1.06298e+00  3.64546e-01
       H -3.42741e+00  2.74213e-01 -1.21693e-01
       H -2.18154e+00  1.16076e+00  3.79900e-01
       H -3.92041e+00  1.76261e+00  6.40880e-01
4
# CELL(abcABC): 1000.00000  1000.00000  1000.00000    90.00000    90.00000    90.00000  Step:          75  Bead:       0 positions{angstrom}  cell{angstrom}
       O -3.14221e+00  1.06300e+00  3.63891e-01
       H -3.41926e+00  2.72903e-01 -1.24116e-01
       H -2.17199e+00  1.17356e+00  3.87101e-01
       H -3.91722e+00  1.75085e+00  6.46494e-01
4
# CELL(abcABC): 1000.00000  1000.00000  1000.00000    90.00000    90.00000    90.00000  Step:          76  Bead:       0 positions{angstrom}  cell{angstrom}
       O -3.14367e+00  1.06291e+00  3.63083e-01
       H -3.40891e+00  2.71934e-01 -1.25079e-01
       H -2.16422e+00  1.18595e+00  3.94407e-01
       H -3.91217e+00  1.74077e+00  6.52981e-01
4
# CELL(abcABC): 1000.00000  1000.00000  1000.00000    90.00000    90.00000    90.00000  Step:          77  Bead:       0 positions{angstrom}  cell{angstrom}
       O -3.14499e+00  1.06284e+00  3.62218e-01
       H -3.39745e+00  2.71710e-01 -1.25794e-01
       H -2.15987e+00  1.19796e+00  4.02266e-01
       H -3.90706e+00  1.73018e+00  6.59567e-01
4
# CELL(abcABC): 1000.00000  1000.00000  1000.00000    90.00000    90.00000    90.00000  Step:          78  Bead:       0 positions{angstrom}  cell{angstrom}
       O -3.14610e+00  1.06284e+00  3.61511e-01
       H -3.38617e+00  2.70321e-01 -1.27412e-01
       H -2.15847e+00  1.20974e+00  4.09740e-01
       H -3.90207e+00  1.71983e+00  6.64926e-01
4
# CELL(abcABC): 1000.00000  1000.00000  1000.00000    90.00000    90.00000    90.00000  Step:          79  Bead:       0 positions{angstrom}  cell{angstrom}
       O -3.14707e+00  1.06301e+00  3.60776e-01
       H -3.37472e+00  2.68834e-01 -1.27829e-01
       H -2.15992e+00  1.21961e+00  4.16795e-01
       H -3.89676e+00  1.70872e+00  6.69954e-01
4
# CELL(abcABC): 1000.00000  1000.00000  1000.00000    90.00000    90.00000    90.00000  Step:          80  Bead:       0 positions{angstrom}  cell{angstrom}
       O -3.14788e+00  1.06328e+00  3.59943e-01
       H -3.36223e+00  2.66876e-01 -1.28408e-01
       H -2.16513e+00  1.22806e+00  4.24625e-01
       H -3.89120e+00  1.69794e+00  6.75928e-01
4
# CELL(abcABC): 1000.00000  1000.00000  1000.00000    90.00000    90.00000    90.00000  Step:          81  Bead:       0 positions{angstrom}  cell{angstrom}
       O -3.14849e+00  1.06348e+00  3.59182e-01
       H -3.34715e+00  2.64978e-01 -1.29852e-01
       H -2.17474e+00  1.23724e+00  4.32348e-01
       H -3.88699e+00  1.68737e+00  6.81732e-01
4
# CELL(abcABC): 1000.00000  1000.00000  1000.00000    90.00000    90.00000    90.00000  Step:          82  Bead:       0 positions{angstrom}  cell{angstrom}
       O -3.14884e+00  1.06389e+00  3.58333e-01
       H -3.33102e+00  2.61651e-01 -1.30847e-01
       H -2.18708e+00  1.24420e+00  4.39719e-01
       H -3.88511e+00  1.67736e+00  6.88827e-01
4
# CELL(abcABC): 1000.00000  1000.00000  1000.00000    90.00000    90.00000    90.00000  Step:          83  Bead:       0 positions{angstrom}  cell{angstrom}
       O -3.14903e+00  1.06425e+00  3.57485e-01
       H -3.31463e+00  2.57980e-01 -1.31715e-01
       H -2.20142e+00  1.25078e+00  4.46867e-01
       H -3.88426e+00  1.66863e+00  6.96017e-01
4
# CELL(abcABC): 1000.00000  1000.00000  1000.00000    90.00000    90.00000    90.00000  Step:          84  Bead:       0 positions{angstrom}  cell{angstrom}
       O -3.14905e+00  1.06462e+00  3.56657e-01
       H -3.29705e+00  2.52931e-01 -1.33866e-01
       H -2.21735e+00  1.25710e+00  4.53757e-01
       H -3.88559e+00  1.66152e+00  7.04410e-01
4
# CELL(abcABC): 1000.00000  1000.00000  1000.00000    90.00000    90.00000    90.00000  Step:          85  Bead:       0 positions{angstrom}  cell{angstrom}