4
# CELL(abcABC): 1000.00000  1000.00000  1000.00000    90.00000    90.00000    90.00000  Step:         372  Bead:       0 positions{angstrom}  cell{angstrom}
       O -3.15141e+00  1.05987e+00  3.45246e-01
       H -2.75126e+00  4.22683e-01  9.11417e-01
       H -3.19361e+00  1.83934e+00  8.53632e-01
       H -3.41751e+00  9.84770e-01 -5.59634e-01
