4
# CELL(abcABC): 1000.00000  1000.00000  1000.00000    90.00000    90.00000    90.00000  Step:           0  Bead:       0 positions{angstrom}  cell{angstrom}
       O -3.15141e+00  1.05987e+00  3.45246e-01
       H -2.75126e+00  4.22683e-01  9.11417e-01
       H -3.19361e+00  1.83934e+00  8.53632e-01
       H -3.41751e+00  9.84770e-01 -5.59634e-01
4
# CELL(abcABC): 1000.00000  1000.00000  1000.00000    90.00000    90.00000    90.00000  Step:           1  Bead:       0 positions{angstrom}  cell{angstrom}
       O -3.14974e+00  1.06012e+00  3.44627e-01
       H -2.76040e+00  4.14150e-01  9.16330e-01
       H -3.19364e+00  1.84091e+00  8.55741e-01
       H -3.43481e+00  9.87836e-01 -5.56829e-01
4
# CELL(abcABC): 1000.00000  1000.00000  1000.00000    90.00000    90.00000    90.00000  Step:           2  Bead:       0 positions{angstrom}  cell{angstrom}
       O -3.14817e+00  1.06025e+00  3.43887e-01
       H -2.76892e+00  4.03652e-01  9.22692e-01
       H -3.19241e+00  1.84657e+00  8.59589e-01
       H -3.45242e+00  9.90491e-01 -5.55292e-01
4
# CELL(abcABC): 1000.00000  1000.00000  1000.00000    90.00000    90.00000    90.00000  Step:           3  Bead:       0 positions{angstrom}  cell{angstrom}
       O -3.14656e+00  1.06036e+00  3.43025e-01
       H -2.77658e+00  3.90544e-01  9.31205e-01
       H -3.19168e+00  1.85652e+00  8.65320e-01
       H -3.47115e+00  9.92010e-01 -5.55857e-01
4
# CELL(abcABC): 1000.00000  1000.00000  1000.00000    90.00000    90.00000    90.00000  Step:           4  Bead:       0 positions{angstrom}  cell{angstrom}
       O -3.14493e+00  1.06047e+00  3.42295e-01
       H -2.78470e+00  3.75836e-01  9.38192e-01
       H -3.19043e+00  1.86893e+00  8.71068e-01
       H -3.49008e+00  9.92450e-01 -5.57003e-01
4
# CELL(abcABC): 1000.00000  1000.00000  1000.00000    90.00000    90.00000    90.00000  Step:           5  Bead:       0 positions{angstrom}  cell{angstrom}
       O -3.14316e+00  1.06048e+00  3.41749e-01
       H -2.79431e+00  3.61740e-01  9.43734e-01
       H -3.18976e+00  1.88279e+00  8.77464e-01
       H -3.50919e+00  9.92565e-01 -5.60268e-01
4
# CELL(abcABC): 1000.00000  1000.00000  1000.00000    90.00000    90.00000    90.00000  Step:           6  Bead:       0 positions{angstrom}  cell{angstrom}
       O -3.14124e+00  1.06062e+00  3.41453e-01
       H -2.80489e+00  3.49310e-01  9.46607e-01
       H -3.18953e+00  1.89376e+00  8.81689e-01
       H -3.52937e+00  9.91828e-01 -5.62674e-01
4
# CELL(abcABC): 1000.00000  1000.00000  1000.00000    90.00000    90.00000    90.00000  Step:           7  Bead:       0 positions{angstrom}  cell{angstrom}
       O -3.13933e+00  1.06075e+00  3.41212e-01
       H -2.81519e+00  3.38864e-01  9.48730e-01
       H -3.18913e+00  1.90192e+00  8.85025e-01
       H -3.54979e+00  9.92111e-01 -5.64312e-01
4
# CELL(abcABC): 1000.00000  1000.00000  1000.00000    90.00000    90.00000    90.00000  Step:           8  Bead:       0 positions{angstrom}  cell{angstrom}
       O -3.13749e+00  1.06099e+00  3.41283e-01
       H -2.82567e+00  3.30848e-01  9.47960e-01
       H -3.18725e+00  1.90582e+00  8.85722e-01
       H -3.57035e+00  9.92371e-01 -5.65356e-01
4
# CELL(abcABC): 1000.00000  1000.00000  1000.00000    90.00000    90.00000    90.00000  Step:           9  Bead:       0 positions{angstrom}  cell{angstrom}
       O -3.13571e+00  1.06143e+00  3.41460e-01
       H -2.83714e+00  3.24590e-01  9.46085e-01
       H -3.18372e+00  1.90609e+00  8.84985e-01
       H -3.59067e+00  9.91371e-01 -5.65561e-01
4
# CELL(abcABC): 1000.00000  1000.00000  1000.00000    90.00000    90.00000    90.00000  Step:          10  Bead:       0 positions{angstrom}  cell{angstrom}
       O -3.13398e+00  1.06190e+00  3.41958e-01
       H -2.84925e+00  3.20948e-01  9.41319e-01
       H -3.17932e+00  1.90321e+00  8.81631e-01
       H -3.61049e+00  9.90382e-01 -5.65346e-01
4
# CELL(abcABC): 1000.00000  1000.00000  1000.00000    90.00000    90.00000    90.00000  Step:          11  Bead:       0 positions{angstrom}  cell{angstrom}
       O -3.13232e+00  1.06247e+00  3.42737e-01
       H -2.86154e+00  3.20462e-01  9.33439e-01
       H -3.17545e+00  1.89653e+00  8.76329e-01
       H -3.62843e+00  9.88485e-01 -5.64524e-01
4
# CELL(abcABC): 1000.00000  1000.00000  1000.00000    90.00000    90.00000    90.00000  Step:          12  Bead:       0 positions{angstrom}  cell{angstrom}
       O -3.13092e+00  1.06317e+00  3.43642e-01
       H -2.87249e+00  3.21737e-01  9.24016e-01
       H -3.17092e+00  1.88587e+00  8.69074e-01
       H -3.64424e+00  9.86767e-01 -5.62214e-01
4
# CELL(abcABC): 1000.00000  1000.00000  1000.00000    90.00000    90.00000    90.00000  Step:          13  Bead:       0 positions{angstrom}  cell{angstrom}
       O -3.12976e+00  1.06392e+00  3.44468e-01
       H -2.88288e+00  3.24850e-01  9.14362e-01
       H -3.16439e+00  1.87356e+00  8.61757e-01
       H -3.65877e+00  9.84076e-01 -5.58356e-01
4
# CELL(abcABC): 1000.00000  1000.00000  1000.00000    90.00000    90.00000    90.00000  Step:          14  Bead:       0 positions{angstrom}  cell{angstrom}
       O -3.12888e+00  1.06464e+00  3.45067e-01
       H -2.89099e+00  3.28058e-01  9.05534e-01
       H -3.15671e+00  1.86196e+00  8.55390e-01
       H -3.67232e+00  9.81138e-01 -5.52670e-01
4
# CELL(abcABC): 1000.00000  1000.00000  1000.00000    90.00000    90.00000    90.00000  Step:          15  Bead:       0 positions{angstrom}  cell{angstrom}
       O -3.12818e+00  1.06516e+00  3.45135e-01
       H -2.89982e+00  3.30272e-01  9.00093e-01
       H -3.14904e+00  1.85268e+00  8.51244e-01
       H -3.68230e+00  9.79801e-01 -5.44156e-01
4
# CELL(abcABC): 1000.00000  1000.00000  1000.00000    90.00000    90.00000    90.00000  Step:          16  Bead:       0 positions{angstrom}  cell{angstrom}
       O -3.12777e+00  1.06549e+00  3.44794e-01
       H -2.90619e+00  3.30966e-01  8.96131e-01
       H -3.14104e+00  1.84771e+00  8.50018e-01
       H -3.69036e+00  9.78892e-01 -5.33564e-01
4
# CELL(abcABC): 1000.00000  1000.00000  1000.00000    90.00000    90.00000    90.00000  Step:          17  Bead:       0 positions{angstrom}  cell{angstrom}
       O -3.12753e+00  1.06565e+00  3.44001e-01
       H -2.91033e+00  3.30563e-01  8.94537e-01
       H -3.13358e+00  1.84739e+00  8.51060e-01
       H -3.69752e+00  9.77020e-01 -5.20414e-01
4
# CELL(abcABC): 1000.00000  1000.00000  1000.00000    90.00000    90.00000    90.00000  Step:          18  Bead:       0 positions{angstrom}  cell{angstrom}
       O -3.12749e+00  1.06557e+00  3.42772e-01
       H -2.91400e+00  3.29334e-01  8.95320e-01
       H -3.12458e+00  1.85103e+00  8.55112e-01
       H -3.70349e+00  9.75872e-01 -5.05746e-01
4
# CELL(abcABC): 1000.00000  1000.00000  1000.00000    90.00000    90.00000    90.00000  Step:          19  Bead:       0 positions{angstrom}  cell{angstrom}
       O -3.12776e+00  1.06543e+00  3.41161e-01
       H -2.91583e+00  3.26463e-01  8.98584e-01
       H -3.11590e+00  1.85729e+00  8.60962e-01
       H -3.70602e+00  9.74822e-01 -4.89290e-01
4
# CELL(abcABC): 1000.00000  1000.00000  1000.00000    90.00000    90.00000    90.00000  Step:          20  Bead:       0 positions{angstrom}  cell{angstrom}
       O -3.12823e+00  1.06526e+00  3.39358e-01
       H -2.91630e+00  3.23008e-01  9.01972e-01
       H -3.10774e+00  1.86565e+00  8.68619e-01
       H -3.70633e+00  9.72571e-01 -4.71721e-01
4
# CELL(abcABC): 1000.00000  1000.00000  1000.00000    90.00000    90.00000    90.00000  Step:          21  Bead:       0 positions{angstrom}  cell{angstrom}
       O -3.12894e+00  1.06509e+00  3.37520e-01
       H -2.91612e+00  3.18580e-01  9.05099e-01
       H -3.09755e+00  1.87515e+00  8.77730e-01
       H -3.70540e+00  9.70246e-01 -4.54769e-01
4
# CELL(abcABC): 1000.00000  1000.00000  1000.00000    90.00000    90.00000    90.00000  Step:          22  Bead:       0 positions{angstrom}  cell{angstrom}
       O -3.12986e+00  1.06489e+00  3.35820e-01
       H -2.91620e+00  3.13424e-01  9.09452e-01
       H -3.08480e+00  1.88401e+00  8.84615e-01
       H -3.70347e+00  9.69660e-01 -4.39023e-01
4
# CELL(abcABC): 1000.00000  1000.00000  1000.00000    90.00000    90.00000    90.00000  Step:          23  Bead:       0 positions{angstrom}  cell{angstrom}
       O -3.13092e+00  1.06477e+00  3.34492e-01
       H -2.91554e+00  3.09669e-01  9.12858e-01
       H -3.07069e+00  1.89131e+00  8.90334e-01
       H -3.70140e+00  9.68086e-01 -4.27079e-01
4
# CELL(abcABC): 1000.00000  1000.00000  1000.00000    90.00000    90.00000    90.00000  Step:          24  Bead:       0 positions{angstrom}  cell{angstrom}
       O -3.13208e+00  1.06465e+00  3.33468e-01
       H -2.91392e+00  3.06339e-01  9.15285e-01
       H -3.05578e+00  1.89670e+00  8.94007e-01
       H -3.69956e+00  9.67865e-01 -4.16922e-01
4
# CELL(abcABC): 1000.00000  1000.00000  1000.00000    90.00000    90.00000    90.00000  Step:          25  Bead:       0 positions{angstrom}  cell{angstrom}
       O -3.13322e+00  1.06474e+00  3.32731e-01
       H -2.91215e+00  3.03890e-01  9.17205e-01
       H -3.04092e+00  1.89786e+00  8.95051e-01
       H -3.69805e+00  9.67799e-01 -4.08187e-01
4
# CELL(abcABC): 1000.00000  1000.00000  1000.00000    90.00000    90.00000    90.00000  Step:          26  Bead:       0 positions{angstrom}  cell{angstrom}
       O -3.13434e+00  1.06501e+00  3.32398e-01
       H -2.91033e+00  3.02997e-01  9.16788e-01
       H -3.02558e+00  1.89492e+00  8.92862e-01
       H -3.69750e+00  9.67240e-01 -4.00295e-01
4
# CELL(abcABC): 1000.00000  1000.00000  1000.00000    90.00000    90.00000    90.00000  Step:          27  Bead:       0 positions{angstrom}  cell{angstrom}
       O -3.13551e+00  1.06536e+00  3.32539e-01
       H -2.90872e+00  3.05384e-01  9.13927e-01
       H -3.01016e+00  1.88754e+00  8.87366e-01
       H -3.69596e+00  9.66700e-01 -3.94177e-01
4
# CELL(abcABC): 1000.00000  1000.00000  1000.00000    90.00000    90.00000    90.00000  Step:          28  Bead:       0 positions{angstrom}  cell{angstrom}
       O -3.13656e+00  1.06577e+00  3.33047e-01
       H -2.90817e+00  3.08317e-01  9.09258e-01
       H -2.99414e+00  1.87734e+00  8.79508e-01
       H -3.69576e+00  9.67426e-01 -3.89710e-01
4
# CELL(abcABC): 1000.00000  1000.00000  1000.00000    90.00000    90.00000    90.00000  Step:          29  Bead:       0 positions{angstrom}  cell{angstrom}
       O -3.13759e+00  1.06616e+00  3.33950e-01
       H -2.90684e+00  3.13207e-01  9.01767e-01
       H -2.97905e+00  1.86520e+00  8.69628e-01
       H -3.69592e+00  9.68567e-01 -3.86669e-01
4
# CELL(abcABC): 1000.00000  1000.00000  1000.00000    90.00000    90.00000    90.00000  Step:          30  Bead:       0 positions{angstrom}  cell{angstrom}
       O -3.13857e+00  1.06640e+00  3.35113e-01
       H -2.90485e+00  3.19997e-01  8.94131e-01
       H -2.96411e+00  1.85248e+00  8.58968e-01
       H -3.69722e+00  9.70701e-01 -3.86832e-01
4
# CELL(abcABC): 1000.00000  1000.00000  1000.00000    90.00000    90.00000    90.00000  Step:          31  Bead:       0 positions{angstrom}  cell{angstrom}
       O -3.13968e+00  1.06643e+00  3.36522e-01
       H -2.90078e+00  3.26873e-01  8.86442e-01
       H -2.94827e+00  1.84193e+00  8.47409e-01
       H -3.69951e+00  9.73799e-01 -3.89961e-01
4
# CELL(abcABC): 1000.00000  1000.00000  1000.00000    90.00000    90.00000    90.00000  Step:          32  Bead:       0 positions{angstrom}  cell{angstrom}
       O -3.14080e+00  1.06644e+00  3.37826e-01
       H -2.89685e+00  3.30759e-01  8.79822e-01
       H -2.93137e+00  1.83518e+00  8.37676e-01
       H -3.70259e+00  9.76547e-01 -3.94308e-01
4
# CELL(abcABC): 1000.00000  1000.00000  1000.00000    90.00000    90.00000    90.00000  Step:          33  Bead:       0 positions{angstrom}  cell{angstrom}
       O -3.14197e+00  1.06645e+00  3.39010e-01
       H -2.89256e+00  3.32036e-01  8.75394e-01
       H -2.91337e+00  1.83094e+00  8.29633e-01
       H -3.70633e+00  9.79418e-01 -4.00622e-01
4
# CELL(abcABC): 1000.00000  1000.00000  1000.00000    90.00000    90.00000    90.00000  Step:          34  Bead:       0 positions{angstrom}  cell{angstrom}
       O -3.14309e+00  1.06636e+00  3.40228e-01
       H -2.88687e+00  3.30784e-01  8.71966e-01
       H -2.89633e+00  1.83019e+00  8.23430e-01
       H -3.71123e+00  9.82814e-01 -4.10333e-01
4
# CELL(abcABC): 1000.00000  1000.00000  1000.00000    90.00000    90.00000    90.00000  Step:          35  Bead:       0 positions{angstrom}  cell{angstrom}
       O -3.14435e+00  1.06612e+00  3.41367e-01
       H -2.87856e+00  3.27035e-01  8.68911e-01
       H -2.87966e+00  1.83432e+00  8.19404e-01
       H -3.71625e+00  9.86268e-01 -4.21332e-01
4
# CELL(abcABC): 1000.00000  1000.00000  1000.00000    90.00000    90.00000    90.00000  Step:          36  Bead:       0 positions{angstrom}  cell{angstrom}
       O -3.14573e+00  1.06570e+00  3.42462e-01
       H -2.86924e+00  3.21194e-01  8.66182e-01
       H -2.86223e+00  1.84294e+00  8.15632e-01
       H -3.72105e+00  9.90114e-01 -4.32216e-01
4
# CELL(abcABC): 1000.00000  1000.00000  1000.00000    90.00000    90.00000    90.00000  Step:          37  Bead:       0 positions{angstrom}  cell{angstrom}
       O -3.14725e+00  1.06529e+00  3.43425e-01
       H -2.85872e+00  3.14645e-01  8.65678e-01
       H -2.84405e+00  1.85287e+00  8.11777e-01
       H -3.72568e+00  9.93199e-01 -4.43136e-01
4
# CELL(abcABC): 1000.00000  1000.00000  1000.00000    90.00000    90.00000    90.00000  Step:          38  Bead:       0 positions{angstrom}  cell{angstrom}
       O -3.14865e+00  1.06488e+00  3.44580e-01
       H -2.84892e+00  3.07167e-01  8.63954e-01
       H -2.82594e+00  1.86220e+00  8.07329e-01
       H -3.73132e+00  9.97952e-01 -4.55302e-01
4
# CELL(abcABC): 1000.00000  1000.00000  1000.00000    90.00000    90.00000    90.00000  Step:          39  Bead:       0 positions{angstrom}  cell{angstrom}
       O -3.15023e+00  1.06461e+00  3.45694e-01
       H -2.83840e+00  2.99150e-01  8.62280e-01
       H -2.80792e+00  1.86959e+00  8.02914e-01
       H -3.73477e+00  1.00279e+00 -4.66894e-01
4
# CELL(abcABC): 1000.00000  1000.00000  1000.00000    90.00000    90.00000    90.00000  Step:          40  Bead:       0 positions{angstrom}  cell{angstrom}
       O -3.15184e+00  1.06434e+00  3.46713e-01
       H -2.82820e+00  2.92141e-01  8.60664e-01
       H -2.79047e+00  1.87532e+00  7.98874e-01
       H -3.73695e+00  1.00832e+00 -4.77410e-01
4
# CELL(abcABC): 1000.00000  1000.00000  1000.00000    90.00000    90.00000    90.00000  Step:          41  Bead:       0 positions{angstrom}  cell{angstrom}
       O -3.15338e+00  1.06410e+00  3.47787e-01
       H -2.81897e+00  2.87418e-01  8.57348e-01
       H -2.77359e+00  1.87877e+00  7.93616e-01
       H -3.73854e+00  1.01345e+00 -4.85888e-01
4
# CELL(abcABC): 1000.00000  1000.00000  1000.00000    90.00000    90.00000    90.00000  Step:          42  Bead:       0 positions{angstrom}  cell{angstrom}
       O -3.15495e+00  1.06406e+00  3.49027e-01
       H -2.80916e+00  2.82786e-01  8.52237e-01
       H -2.75791e+00  1.87903e+00  7.87037e-01
       H -3.73910e+00  1.01853e+00 -4.93878e-01
4
# CELL(abcABC): 1000.00000  1000.00000  1000.00000    90.00000    90.00000    90.00000  Step:          43  Bead:       0 positions{angstrom}  cell{angstrom}
       O -3.15640e+00  1.06402e+00  3.50393e-01
       H -2.80068e+00  2.81232e-01  8.45152e-01
       H -2.74376e+00  1.87715e+00  7.79007e-01
       H -3.73878e+00  1.02259e+00 -5.00441e-01
4
# CELL(abcABC): 1000.00000  1000.00000  1000.00000    90.00000    90.00000    90.00000  Step:          44  Bead:       0 positions{angstrom}  cell{angstrom}
       O -3.15769e+00  1.06409e+00  3.51853e-01
       H -2.79311e+00  2.81265e-01  8.35877e-01
       H -2.73130e+00  1.87134e+00  7.68919e-01
       H -3.73823e+00  1.02723e+00 -5.04260e-01
4
# CELL(abcABC): 1000.00000  1000.00000  1000.00000    90.00000    90.00000    90.00000  Step:          45  Bead:       0 positions{angstrom}  cell{angstrom}
       O -3.15877e+00  1.06426e+00  3.53436e-01
       H -2.78718e+00  2.83486e-01  8.24548e-01
       H -2.71988e+00  1.86173e+00  7.56689e-01
       H -3.73848e+00  1.03195e+00 -5.05820e-01
4
# CELL(abcABC): 1000.00000  1000.00000  1000.00000    90.00000    90.00000    90.00000  Step:          46  Bead:       0 positions{angstrom}  cell{angstrom}
       O -3.15979e+00  1.06451e+00  3.55063e-01
       H -2.78224e+00  2.87904e-01  8.11723e-01
       H -2.71007e+00  1.84877e+00  7.43039e-01
       H -3.73711e+00  1.03650e+00 -5.05175e-01
4
# CELL(abcABC): 1000.00000  1000.00000  1000.00000    90.00000    90.00000    90.00000  Step:          47  Bead:       0 positions{angstrom}  cell{angstrom}
       O -3.16072e+00  1.06468e+00  3.56762e-01
       H -2.77786e+00  2.92893e-01  7.98546e-01
       H -2.70114e+00  1.83458e+00  7.28090e-01
       H -3.73562e+00  1.04290e+00 -5.04021e-01
4
# CELL(abcABC): 1000.00000  1000.00000  1000.00000    90.00000    90.00000    90.00000  Step:          48  Bead:       0 positions{angstrom}  cell{angstrom}
       O -3.16163e+00  1.06495e+00  3.58327e-01
       H -2.77323e+00  2.96800e-01  7.85560e-01
       H -2.69266e+00  1.82085e+00  7.12553e-01
       H -3.73433e+00  1.04846e+00 -5.00337e-01
4
# CELL(abcABC): 1000.00000  1000.00000  1000.00000    90.00000    90.00000    90.00000  Step:          49  Bead:       0 positions{angstrom}  cell{angstrom}
       O -3.16263e+00  1.06519e+00  3.59588e-01
       H -2.76845e+00  2.99381e-01  7.73470e-01
       H -2.68270e+00  1.80804e+00  6.97869e-01
       H -3.73315e+00  1.05494e+00 -4.93576e-01
4
# CELL(abcABC): 1000.00000  1000.00000  1000.00000    90.00000    90.00000    90.00000  Step:          50  Bead:       0 positions{angstrom}  cell{angstrom}
       O -3.16356e+00  1.06542e+00  3.60711e-01
       H -2.76372e+00  3.00571e-01  7.61712e-01
       H -2.67355e+00  1.79692e+00  6.84472e-01
       H -3.73232e+00  1.06114e+00 -4.86244e-01
4
# CELL(abcABC): 1000.00000  1000.00000  1000.00000    90.00000    90.00000    90.00000  Step:          51  Bead:       0 positions{angstrom}  cell{angstrom}
       O -3.16462e+00  1.06555e+00  3.61578e-01
       H -2.75899e+00  2.99354e-01  7.50346e-01
       H -2.66325e+00  1.78958e+00  6.72507e-01
       H -3.73049e+00  1.06777e+00 -4.76679e-01
4
# CELL(abcABC): 1000.00000  1000.00000  1000.00000    90.00000    90.00000    90.00000  Step:          52  Bead:       0 positions{angstrom}  cell{angstrom}
       O -3.16579e+00  1.06564e+00  3.62284e-01
       H -2.75433e+00  2.95720e-01  7.39904e-01
       H -2.65151e+00  1.78566e+00  6.61117e-01
       H -3.72832e+00  1.07383e+00 -4.66050e-01
4
# CELL(abcABC): 1000.00000  1000.00000  1000.00000    90.00000    90.00000    90.00000  Step:          53  Bead:       0 positions{angstrom}  cell{angstrom}
       O -3.16708e+00  1.06558e+00  3.62705e-01
       H -2.74894e+00  2.90532e-01  7.29417e-01
       H -2.63843e+00  1.78713e+00  6.52013e-01
       H -3.72633e+00  1.07843e+00 -4.53147e-01
4
# CELL(abcABC): 1000.00000  1000.00000  1000.00000    90.00000    90.00000    90.00000  Step:          54  Bead:       0 positions{angstrom}  cell{angstrom}
       O -3.16838e+00  1.06552e+00  3.62653e-01
       H -2.74371e+00  2.82728e-01  7.20782e-01
       H -2.62467e+00  1.79254e+00  6.45044e-01
       H -3.72465e+00  1.08176e+00 -4.36721e-01
4
# CELL(abcABC): 1000.00000  1000.00000  1000.00000    90.00000    90.00000    90.00000  Step:          55  Bead:       0 positions{angstrom}  cell{angstrom}
       O -3.16966e+00  1.06543e+00  3.62419e-01
       H -2.73950e+00  2.74045e-01  7.13473e-01
       H -2.61062e+00  1.80005e+00  6.39684e-01
       H -3.72256e+00  1.08438e+00 -4.20337e-01
4
# CELL(abcABC): 1000.00000  1000.00000  1000.00000    90.00000    90.00000    90.00000  Step:          56  Bead:       0 positions{angstrom}  cell{angstrom}
       O -3.17084e+00  1.06530e+00  3.62109e-01
       H -2.73392e+00  2.65389e-01  7.07081e-01
       H -2.59756e+00  1.80787e+00  6.33705e-01
       H -3.72245e+00  1.08733e+00 -4.03037e-01
4
# CELL(abcABC): 1000.00000  1000.00000  1000.00000    90.00000    90.00000    90.00000  Step:          57  Bead:       0 positions{angstrom}  cell{angstrom}
       O -3.17174e+00  1.06514e+00  3.61750e-01
       H -2.72791e+00  2.57915e-01  7.01265e-01
       H -2.58731e+00  1.81454e+00  6.28808e-01
       H -3.72444e+00  1.09062e+00 -3.86629e-01
4
# CELL(abcABC): 1000.00000  1000.00000  1000.00000    90.00000    90.00000    90.00000  Step:          58  Bead:       0 positions{angstrom}  cell{angstrom}
       O -3.17236e+00  1.06506e+00  3.61461e-01
       H -2.72223e+00  2.51013e-01  6.95123e-01
       H -2.57907e+00  1.81953e+00  6.24401e-01
       H -3.72850e+00  1.09380e+00 -3.71501e-01
4
# CELL(abcABC): 1000.00000  1000.00000  1000.00000    90.00000    90.00000    90.00000  Step:          59  Bead:       0 positions{angstrom}  cell{angstrom}
       O -3.17263e+00  1.06498e+00  3.61180e-01
       H -2.71726e+00  2.46162e-01  6.88730e-01
       H -2.57333e+00  1.82265e+00  6.21320e-01
       H -3.73498e+00  1.09694e+00 -3.57558e-01
4
# CELL(abcABC): 1000.00000  1000.00000  1000.00000    90.00000    90.00000    90.00000  Step:          60  Bead:       0 positions{angstrom}  cell{angstrom}
       O -3.17249e+00  1.06498e+00  3.61105e-01
       H -2.71511e+00  2.43271e-01  6.81969e-01
       H -2.56980e+00  1.82234e+00  6.16341e-01
       H -3.74284e+00  1.10012e+00 -3.44628e-01
4
# CELL(abcABC): 1000.00000  1000.00000  1000.00000    90.00000    90.00000    90.00000  Step:          61  Bead:       0 positions{angstrom}  cell{angstrom}
       O -3.17201e+00  1.06506e+00  3.61233e-01
       H -2.71384e+00  2.42311e-01  6.74503e-01
       H -2.56796e+00  1.81887e+00  6.09779e-01
       H -3.75363e+00  1.10322e+00 -3.32634e-01
4
# CELL(abcABC): 1000.00000  1000.00000  1000.00000    90.00000    90.00000    90.00000  Step:          62  Bead:       0 positions{angstrom}  cell{angstrom}
       O -3.17103e+00  1.06527e+00  3.61662e-01
       H -2.71505e+00  2.42905e-01  6.66209e-01
       H -2.56997e+00  1.81217e+00  6.02519e-01
       H -3.76596e+00  1.10607e+00 -3.23885e-01
4
# CELL(abcABC): 1000.00000  1000.00000  1000.00000    90.00000    90.00000    90.00000  Step:          63  Bead:       0 positions{angstrom}  cell{angstrom}
       O -3.16963e+00  1.06538e+00  3.62070e-01
       H -2.71739e+00  2.46578e-01  6.58175e-01
       H -2.57442e+00  1.80261e+00  5.95133e-01
       H -3.78141e+00  1.11015e+00 -3.14939e-01
4
# CELL(abcABC): 1000.00000  1000.00000  1000.00000    90.00000    90.00000    90.00000  Step:          64  Bead:       0 positions{angstrom}  cell{angstrom}
       O -3.16798e+00  1.06547e+00  3.62512e-01
       H -2.71960e+00  2.52079e-01  6.51182e-01
       H -2.57979e+00  1.79171e+00  5.88170e-01
       H -3.79995e+00  1.11408e+00 -3.08007e-01
4
# CELL(abcABC): 1000.00000  1000.00000  1000.00000    90.00000    90.00000    90.00000  Step:          65  Bead:       0 positions{angstrom}  cell{angstrom}
       O -3.16618e+00  1.06545e+00  3.62979e-01
       H -2.72324e+00  2.59013e-01  6.43451e-01
       H -2.58464e+00  1.78231e+00  5.81856e-01
       H -3.82001e+00  1.11689e+00 -3.01380e-01
4
# CELL(abcABC): 1000.00000  1000.00000  1000.00000    90.00000    90.00000    90.00000  Step:          66  Bead:       0 positions{angstrom}  cell{angstrom}
       O -3.16437e+00  1.06525e+00  3.63277e-01
       H -2.72706e+00  2.68348e-01  6.37137e-01
       H -2.58842e+00  1.77303e+00  5.77060e-01
       H -3.84114e+00  1.11998e+00 -2.94992e-01
4
# CELL(abcABC): 1000.00000  1000.00000  1000.00000    90.00000    90.00000    90.00000  Step:          67  Bead:       0 positions{angstrom}  cell{angstrom}
       O -3.16261e+00  1.06506e+00  3.63411e-01
       H -2.72998e+00  2.75362e-01  6.31198e-01
       H -2.58967e+00  1.76677e+00  5.74354e-01
       H -3.86501e+00  1.12230e+00 -2.88480e-01
4
# CELL(abcABC): 1000.00000  1000.00000  1000.00000    90.00000    90.00000    90.00000  Step:          68  Bead:       0 positions{angstrom}  cell{angstrom}
       O -3.16109e+00  1.06477e+00  3.63467e-01
       H -2.73101e+00  2.79439e-01  6.26509e-01
       H -2.58784e+00  1.76443e+00  5.71849e-01
       H -3.88987e+00  1.12512e+00 -2.82164e-01
4
# CELL(abcABC): 1000.00000  1000.00000  1000.00000    90.00000    90.00000    90.00000  Step:          69  Bead:       0 positions{angstrom}  cell{angstrom}
       O -3.15980e+00  1.06459e+00  3.63078e-01
       H -2.73068e+00  2.78441e-01  6.25213e-01
       H -2.58372e+00  1.76632e+00  5.72058e-01
       H -3.91478e+00  1.12712e+00 -2.74902e-01
4
# CELL(abcABC): 1000.00000  1000.00000  1000.00000    90.00000    90.00000    90.00000  Step:          70  Bead:       0 positions{angstrom}  cell{angstrom}
       O -3.15897e+00  1.06429e+00  3.62421e-01
       H -2.72823e+00  2.74380e-01  6.24724e-01
       H -2.57667e+00  1.77274e+00  5.73634e-01
       H -3.93751e+00  1.12949e+00 -2.65564e-01
4
# CELL(abcABC): 1000.00000  1000.00000  1000.00000    90.00000    90.00000    90.00000  Step:          71  Bead:       0 positions{angstrom}  cell{angstrom}
       O -3.15834e+00  1.06413e+00  3.61584e-01
       H -2.72496e+00  2.65990e-01  6.24374e-01
       H -2.56817e+00  1.78134e+00  5.76062e-01
       H -3.95923e+00  1.13190e+00 -2.54364e-01
4
# CELL(abcABC): 1000.00000  1000.00000  1000.00000    90.00000    90.00000    90.00000  Step:          72  Bead:       0 positions{angstrom}  cell{angstrom}
       O -3.15793e+00  1.06394e+00  3.60491e-01
       H -2.72030e+00  2.55607e-01  6.25465e-01
       H -2.55859e+00  1.79147e+00  5.80132e-01
       H -3.97992e+00  1.13517e+00 -2.42179e-01
4
# CELL(abcABC): 1000.00000  1000.00000  1000.00000    90.00000    90.00000    90.00000  Step:          73  Bead:       0 positions{angstrom}  cell{angstrom}
       O -3.15757e+00  1.06386e+00  3.59314e-01
       H -2.71539e+00  2.44064e-01  6.27124e-01
       H -2.54927e+00  1.80192e+00  5.84696e-01
       H -3.99988e+00  1.13748e+00 -2.29707e-01
4
# CELL(abcABC): 1000.00000  1000.00000  1000.00000    90.00000    90.00000    90.00000  Step:          74  Bead:       0 positions{angstrom}  cell{angstrom}
       O -3.15724e+00  1.06380e+00  3.58194e-01
       H -2.71042e+00  2.32917e-01  6.27751e-01
       H -2.54124e+00  1.81100e+00  5.88163e-01
       H -4.01820e+00  1.14043e+00 -2.16022e-01
4
# CELL(abcABC): 1000.00000  1000.00000  1000.00000    90.00000    90.00000    90.00000  Step:          75  Bead:       0 positions{angstrom}  cell{angstrom}
       O -3.15666e+00  1.06386e+00  3.57022e-01
       H -2.70675e+00  2.22264e-01  6.27701e-01
       H -2.53592e+00  1.81707e+00  5.92130e-01
       H -4.03634e+00  1.14420e+00 -2.01343e-01
4
# CELL(abcABC): 1000.00000  1000.00000  1000.00000    90.00000    90.00000    90.00000  Step:          76  Bead:       0 positions{angstrom}  cell{angstrom}
       O -3.15603e+00  1.06383e+00  3.55709e-01
       H -2.70351e+00  2.14320e-01  6.28303e-01
       H -2.53337e+00  1.82010e+00  5.95719e-01
       H -4.05215e+00  1.14953e+00 -1.84689e-01
4
# CELL(abcABC): 1000.00000  1000.00000  1000.00000    90.00000    90.00000    90.00000  Step:          77  Bead:       0 positions{angstrom}  cell{angstrom}
       O -3.15515e+00  1.06380e+00  3.54366e-01
       H -2.70192e+00  2.10456e-01  6.28259e-01
       H -2.53415e+00  1.82000e+00  5.99316e-01
       H -4.06695e+00  1.15402e+00 -1.66924e-01
4
# CELL(abcABC): 1000.00000  1000.00000  1000.00000    90.00000    90.00000    90.00000  Step:          78  Bead:       0 positions{angstrom}  cell{angstrom}
       O -3.15404e+00  1.06378e+00  3.53208e-01
       H -2.70324e+00  2.09403e-01  6.26506e-01
       H -2.53691e+00  1.81708e+00  6.02006e-01
       H -4.08043e+00  1.15822e+00 -1.49488e-01
4
# CELL(abcABC): 1000.00000  1000.00000  1000.00000    90.00000    90.00000    90.00000  Step:          79  Bead:       0 positions{angstrom}  cell{angstrom}
       O -3.15286e+00  1.06387e+00  3.52045e-01
       H -2.70689e+00  2.12333e-01  6.25235e-01
       H -2.54083e+00  1.81009e+00  6.03857e-01
       H -4.09168e+00  1.16093e+00 -1.31607e-01
4
# CELL(abcABC): 1000.00000  1000.00000  1000.00000    90.00000    90.00000    90.00000  Step:          80  Bead:       0 positions{angstrom}  cell{angstrom}
       O -3.15168e+00  1.06396e+00  3.50795e-01
       H -2.71164e+00  2.18628e-01  6.23273e-01
       H -2.54618e+00  1.80018e+00  6.06236e-01
       H -4.10026e+00  1.16300e+00 -1.12169e-01
4
# CELL(abcABC): 1000.00000  1000.00000  1000.00000    90.00000    90.00000    90.00000  Step:          81  Bead:       0 positions{angstrom}  cell{angstrom}
       O -3.15056e+00  1.06391e+00  3.49610e-01
       H -2.71542e+00  2.28175e-01  6.20158e-01
       H -2.55319e+00  1.79038e+00  6.08483e-01
       H -4.10732e+00  1.16409e+00 -9.24911e-02
4
# CELL(abcABC): 1000.00000  1000.00000  1000.00000    90.00000    90.00000    90.00000  Step:          82  Bead:       0 positions{angstrom}  cell{angstrom}
       O -3.14950e+00  1.06398e+00  3.48307e-01
       H -2.71915e+00  2.38494e-01  6.17532e-01
       H -2.56012e+00  1.77869e+00  6.10591e-01
       H -4.11342e+00  1.16438e+00 -7.13031e-02
4
# CELL(abcABC): 1000.00000  1000.00000  1000.00000    90.00000    90.00000    90.00000  Step:          83  Bead:       0 positions{angstrom}  cell{angstrom}
       O -3.14864e+00  1.06396e+00  3.46954e-01
       H -2.72295e+00  2.49421e-01  6.15337e-01
       H -2.56642e+00  1.76797e+00  6.12942e-01
       H -4.11699e+00  1.16447e+00 -4.99815e-02
4
# CELL(abcABC): 1000.00000  1000.00000  1000.00000    90.00000    90.00000    90.00000  Step:          84  Bead:       0 positions{angstrom}  cell{angstrom}
       O -3.14801e+00  1.06392e+00  3.45552e-01
       H -2.72519e+00  2.58475e-01  6.12437e-01
       H -2.57224e+00  1.75928e+00  6.15708e-01
       H -4.11899e+00  1.16471e+00 -2.75833e-02
4
# CELL(abcABC): 1000.00000  1000.00000  1000.00000    90.00000    90.00000    90.00000  Step:          85  Bead:       0 positions{angstrom}  cell{angstrom}