6
# CELL(abcABC): 1000.00000  1000.00000  1000.00000    90.00000    90.00000    90.00000  Step:         534  Bead:       0 positions{angstrom}  cell{angstrom}
       C -1.12460e+00  2.28341e+00  2.14348e-01
       H -1.80075e-01  1.85242e+00 -1.84905e-02
       H -1.37472e+00  2.14343e+00  1.31387e+00
       H -1.90564e+00  1.68332e+00 -2.37591e-01
       O -1.11244e+00  3.65142e+00 -2.26625e-01
       H -1.99056e+00  3.99222e+00 -3.28369e-01
