11115
# CELL(abcABC):   47.66706    47.66706    47.66706    90.00000    90.00000    90.00000  Step:       10000  Bead:       0 positions{angstrom}  cell{angstrom}
       C  6.45816e+00  2.45980e+00  7.66065e+00
       H  6.51666e+00  3.27878e+00  6.91156e+00
       H  7.30384e+00  2.31624e+00  8.24344e+00
       H  5.56812e+00  2.59903e+00  8.36206e+00
       C  6.28128e+00  1.20090e+00  6.91969e+00
       O  5.16789e+00  8.65561e-01  6.50945e+00
       N  7.37453e+00  5.06772e-01  6.67637e+00
       H  8.29599e+00  8.95947e-01  6.94908e+00
       C  7.34952e+00 -8.83179e-01  6.11855e+00
       H  6.51706e+00 -8.20482e-01  5.42669e+00
       C  8.55053e+00 -1.06938e+00  5.27429e+00
       H  9.46659e+00 -1.10706e+00  5.87173e+00
       H  8.65398e+00 -2.37856e-01  4.63263e+00
       C  8.51179e+00 -2.28603e+00  4.37834e+00
       O  9.50648e+00 -3.09022e+00  4.30690e+00
       O  7.40162e+00 -2.52368e+00  3.77128e+00
       H  7.37799e+00 -3.27759e+00  3.01108e+00
       C  7.29687e+00 -2.10013e+00  7.11465e+00
       O  8.06347e+00 -3.06914e+00  7.08208e+00
       N  6.41938e+00 -1.88681e+00  8.11080e+00
       H  6.35078e+00 -2.46712e+00  8.90161e+00
       H  5.74200e+00 -1.18335e+00  7.95671e+00
       O -1.90141e+01 -1.71260e+01 -2.06198e+00
       H -1.85965e+01 -1.73817e+01 -1.24707e+00
       H -1.82442e+01 -1.72609e+01 -2.60753e+00
       O -2.92409e+01 -1.36597e+01 -3.32377e+01
       H -2.86473e+01 -1.30136e+01 -3.37468e+01
       H -2.99102e+01 -1.37725e+01 -3.38759e+01
       O -1.54274e+01 -1.05496e+01  7.01875e-01
       H -1.55447e+01 -9.65353e+00  9.87506e-01
       H -1.46342e+01 -1.04007e+01  4.33471e-02
       O -1.94906e+01 -2.93923e+01 -1.16924e+01
       H -2.01297e+01 -2.87547e+01 -1.20353e+01
       H -1.96076e+01 -2.91297e+01 -1.07232e+01
       O -2.37792e+01 -1.68101e+01 -5.25336e+00
       H -2.38950e+01 -1.59267e+01 -5.60488e+00
       H -2.29363e+01 -1.66222e+01 -4.86712e+00
       O -2.47979e+01 -2.52175e+01 -1.80505e+01
       H -2.40859e+01 -2.47856e+01 -1.75909e+01
       H -2.43939e+01 -2.59935e+01 -1.83799e+01
       O -2.70379e+01 -2.35211e+01 -1.74661e+01
       H -2.63100e+01 -2.41870e+01 -1.74905e+01
       H -2.66018e+01 -2.27053e+01 -1.78565e+01
       O -2.35554e+01 -1.78660e+01 -1.98327e+01
       H -2.44791e+01 -1.78830e+01 -1.95368e+01
       H -2.32859e+01 -1.88548e+01 -1.98574e+01
       O -1.15332e+01 -2.81768e+01 -2.22993e+01
       H -1.06325e+01 -2.80800e+01 -2.20440e+01
       H -1.18375e+01 -2.72068e+01 -2.21338e+01
       O -5.08679e+00 -2.94190e+01 -9.23272e+00
       H -4.40315e+00 -2.98400e+01 -9.76480e+00
       H -5.81966e+00 -3.00446e+01 -9.44804e+00
       O -2.11732e+01 -1.22677e+01 -2.49327e+01
       H -2.19570e+01 -1.27572e+01 -2.49164e+01
       H -2.05049e+01 -1.30038e+01 -2.47129e+01
       O -4.47907e+00  9.49273e+00 -2.80599e+00
       H -4.52055e+00  8.53433e+00 -2.77269e+00
       H -5.34482e+00  9.81375e+00 -2.86961e+00
       O -1.52554e+01 -2.18394e+01 -2.06578e+01
       H -1.55567e+01 -2.08548e+01 -2.08632e+01
       H -1.59108e+01 -2.20027e+01 -1.99212e+01
       O -2.03402e+01 -6.11202e+00 -9.01235e+00
       H -1.96529e+01 -5.42305e+00 -8.90360e+00
       H -1.98595e+01 -6.90597e+00 -9.35310e+00
       O -2.78897e+01 -3.29552e+01 -3.53976e+01
       H -2.78877e+01 -3.19999e+01 -3.54761e+01
       H -2.73184e+01 -3.31129e+01 -3.62452e+01
       O -6.03572e+00 -2.52545e+01 -1.94169e+01
       H -6.63195e+00 -2.44813e+01 -1.94766e+01
       H -5.12636e+00 -2.48245e+01 -1.95668e+01
       O -2.69997e+01 -2.87038e+01  4.33022e+00
       H -2.71037e+01 -2.77940e+01  4.09636e+00
       H -2.63754e+01 -2.89663e+01  3.67512e+00
       O -1.35698e+01 -9.91538e+00 -2.02434e+01
       H -1.32096e+01 -9.11595e+00 -1.97130e+01
       H -1.27180e+01 -1.01206e+01 -2.06483e+01
       O -1.89851e+01 -1.51242e+01  1.75844e+00
       H -1.84230e+01 -1.44008e+01  2.10675e+00
       H -1.84775e+01 -1.59904e+01  1.82944e+00
       O -1.98383e+01  2.30563e+00 -3.57281e+01
       H -2.05637e+01  1.66701e+00 -3.55047e+01
       H -1.90639e+01  1.88563e+00 -3.52525e+01
       O -1.41437e+01 -3.73906e+01 -9.51441e+00
       H -1.40072e+01 -3.66030e+01 -8.95376e+00
       H -1.38087e+01 -3.80815e+01 -8.97770e+00
       O -3.62268e+01 -5.19719e+00 -2.73039e+01
       H -3.60986e+01 -6.18235e+00 -2.76384e+01
       H -3.57610e+01 -5.28221e+00 -2.64507e+01
       O -1.50223e+00 -4.81740e+00 -1.70401e+01
       H -5.33723e-01 -4.65964e+00 -1.70872e+01
       H -1.70439e+00 -4.47796e+00 -1.61662e+01
       O -2.63822e+01 -1.24828e+01 -1.29149e+01
       H -2.67586e+01 -1.30852e+01 -1.35770e+01
       H -2.54731e+01 -1.29331e+01 -1.28403e+01
       O -1.22167e+01 -3.43872e+01 -3.50071e+01
       H -1.19619e+01 -3.41401e+01 -3.40927e+01
       H -1.15077e+01 -3.40710e+01 -3.56144e+01
       O -1.85886e+01 -1.12181e+01 -1.78008e+01
       H -1.87937e+01 -1.07674e+01 -1.86349e+01
       H -1.76455e+01 -1.08061e+01 -1.76850e+01
       O -2.00230e+00  1.76911e+01 -8.03858e+00
       H -2.80101e+00  1.77961e+01 -7.52008e+00
       H -2.29123e+00  1.72466e+01 -8.85570e+00
       O -1.96639e+01 -2.38658e+00  1.64000e+00
       H -1.95498e+01 -2.89829e+00  8.20194e-01
       H -1.86910e+01 -2.34554e+00  1.77238e+00
       O -2.21367e+01 -1.47022e+01 -8.16669e+00
       H -2.15230e+01 -1.53990e+01 -8.32021e+00
       H -2.14585e+01 -1.39789e+01 -8.28818e+00
       O -8.59794e+00 -2.06093e+01 -9.28579e+00
       H -7.75473e+00 -2.01632e+01 -8.99736e+00
       H -9.15770e+00 -1.98798e+01 -8.96949e+00
       O  1.16429e+01  7.44836e+00 -3.86219e+01
       H  1.14908e+01  6.88248e+00 -3.78971e+01
       H  1.20937e+01  6.77754e+00 -3.92336e+01
       O -2.54961e+00 -2.74214e+01 -1.67555e+01
       H -2.22859e+00 -2.65850e+01 -1.68521e+01
       H -3.42209e+00 -2.73627e+01 -1.62765e+01
       O  2.60077e+00 -2.07756e+00 -7.79548e+00
       H  2.88851e+00 -1.15499e+00 -7.80533e+00
       H  1.81419e+00 -2.14767e+00 -8.31371e+00
       O -3.12646e+01 -1.24704e+01 -5.91655e+00
       H -3.08307e+01 -1.21320e+01 -5.11481e+00
       H -3.07978e+01 -1.19668e+01 -6.62770e+00
       O -1.18035e+01 -2.01937e+01 -1.90991e+01
       H -1.13366e+01 -2.10618e+01 -1.91406e+01
       H -1.23376e+01 -2.01201e+01 -1.82504e+01
       O -1.50823e+01 -1.75073e+01 -3.01359e+01
       H -1.60674e+01 -1.72668e+01 -3.00760e+01
       H -1.46384e+01 -1.68178e+01 -3.07169e+01
       O -8.25556e+00 -1.54703e+01  6.27206e+00
       H -8.24959e+00 -1.46278e+01  5.71253e+00
       H -9.09853e+00 -1.58389e+01  5.91800e+00
       O -1.65518e+01 -3.84408e+01 -1.15437e+01
       H -1.61434e+01 -3.90658e+01 -1.21699e+01
       H -1.69475e+01 -3.90365e+01 -1.09227e+01
       O -4.60723e+00 -7.63081e+00  7.38916e+00
       H -5.28265e+00 -7.29611e+00  8.00397e+00
       H -4.67504e+00 -7.15274e+00  6.50433e+00
       O  7.21974e+00 -8.31384e+00 -3.75433e+01
       H  7.76334e+00 -9.12642e+00 -3.73845e+01
       H  6.43678e+00 -8.74672e+00 -3.78946e+01
       O -3.31309e+00 -3.12157e+01 -2.00275e+01
       H -3.09636e+00 -3.21532e+01 -1.99300e+01
       H -4.16654e+00 -3.13949e+01 -2.04681e+01
       O -2.51777e+01 -1.90648e+01 -5.58956e+00
       H -2.49076e+01 -1.96304e+01 -4.93776e+00
       H -2.44861e+01 -1.83959e+01 -5.51824e+00
       O -2.44609e+00 -1.11801e+01 -1.81286e+01
       H -1.58632e+00 -1.10479e+01 -1.76670e+01
       H -3.01633e+00 -1.13125e+01 -1.73202e+01
       O -2.36081e+01 -5.68957e+01 -2.41282e+01
       H -2.27785e+01 -5.65763e+01 -2.36885e+01
       H -2.36208e+01 -5.78881e+01 -2.39580e+01
       O -1.55428e+01 -9.17517e+00 -3.65859e+01
       H -1.60294e+01 -8.57446e+00 -3.70689e+01
       H -1.49133e+01 -9.49974e+00 -3.71479e+01
       O -9.72701e+00 -3.67646e+00 -3.19601e+01
       H -9.45639e+00 -3.24633e+00 -3.27676e+01
       H -9.04546e+00 -4.40070e+00 -3.18707e+01
       O -3.77606e+01 -2.33077e+01 -1.18887e+01
       H -3.70038e+01 -2.28007e+01 -1.21950e+01
       H -3.82164e+01 -2.35149e+01 -1.26878e+01
       O -1.80468e+01 -7.80716e+00 -9.39687e+00
       H -1.79377e+01 -8.24068e+00 -8.56960e+00
       H -1.77039e+01 -8.51679e+00 -1.00215e+01
       O -1.94086e+01 -2.12249e+01 -2.10171e+01
       H -2.01116e+01 -2.17482e+01 -2.06433e+01
       H -1.96129e+01 -2.03550e+01 -2.05711e+01
       O  3.55083e+00 -4.12116e+00  4.95882e+00
       H  4.46249e+00 -4.25517e+00  5.25102e+00
       H  3.19381e+00 -3.37913e+00  5.44074e+00
       O -2.68305e+00  1.28028e+00  1.22177e+01
       H -2.25643e+00  1.84598e+00  1.29785e+01
       H -3.23057e+00  1.91469e+00  1.16571e+01
       O -6.29232e+00  1.86941e+00 -5.57989e+00
       H -6.14147e+00  1.38585e+00 -4.70477e+00
       H -6.43853e+00  1.04805e+00 -6.08338e+00
       O -1.33279e+01 -9.47848e+00 -1.47039e+01
       H -1.30468e+01 -1.01104e+01 -1.40208e+01
       H -1.27503e+01 -8.68979e+00 -1.45924e+01
       O -1.38801e+01  8.18543e+00 -1.20522e+01
       H -1.38814e+01  7.35529e+00 -1.15356e+01
       H -1.38972e+01  8.70743e+00 -1.12733e+01
       O -1.25077e+01 -1.82125e+01 -5.88298e+00
       H -1.15827e+01 -1.84474e+01 -5.90269e+00
       H -1.26439e+01 -1.77325e+01 -6.66635e+00
       O -1.31141e+01 -3.04025e+01 -2.96786e+01
       H -1.23089e+01 -3.06670e+01 -2.93515e+01
       H -1.28758e+01 -2.97585e+01 -3.03946e+01
       O -1.97312e+01 -2.90549e+01 -8.86750e+00
       H -1.99832e+01 -2.83915e+01 -8.23466e+00
       H -1.88845e+01 -2.94354e+01 -8.51190e+00
       O -1.94623e+01 -3.71561e+01 -1.15508e+01
       H -1.94076e+01 -3.69016e+01 -1.25316e+01
       H -1.86931e+01 -3.77181e+01 -1.13948e+01
       O -1.55046e+00  4.13451e+00 -4.65235e+00
       H -2.28300e+00  3.61386e+00 -4.95476e+00
       H -1.44109e+00  4.73886e+00 -5.41015e+00
       O -8.62061e+00 -3.40056e+01 -2.49228e+01
       H -8.70193e+00 -3.30742e+01 -2.49183e+01
       H -8.28329e+00 -3.42344e+01 -2.40515e+01
       O  2.47530e+00 -1.11904e+00 -2.78239e+01
       H  2.44904e+00 -1.27754e-01 -2.79533e+01
       H  3.14327e+00 -1.15402e+00 -2.70829e+01
       O -3.15207e+01 -2.07398e+01 -7.61676e+00
       H -3.20709e+01 -2.13630e+01 -8.05852e+00
       H -3.07092e+01 -2.13043e+01 -7.59647e+00
       O -9.24008e+00 -4.70552e+01 -2.24966e+01
       H -8.83903e+00 -4.63388e+01 -2.18743e+01
       H -8.97209e+00 -4.67321e+01 -2.33664e+01
       O -5.80289e+00 -2.46797e+01 -8.13516e+00
       H -5.79916e+00 -2.41136e+01 -8.95139e+00
       H -6.04951e+00 -2.55033e+01 -8.52286e+00
       O -4.10184e+00 -1.74346e+01 -1.60981e+01
       H -4.55334e+00 -1.68200e+01 -1.55133e+01
       H -3.24695e+00 -1.75240e+01 -1.56563e+01
       O -2.06185e+01 -3.43582e+01 -8.81430e+00
       H -2.02915e+01 -3.34618e+01 -9.01701e+00
       H -2.10797e+01 -3.41153e+01 -7.99478e+00
       O -3.17857e+01 -1.16568e+01 -1.29187e+01
       H -3.08816e+01 -1.18742e+01 -1.27464e+01
       H -3.23165e+01 -1.24341e+01 -1.33335e+01
       O -2.20126e+01 -2.23899e+01 -2.63080e+01
       H -2.12579e+01 -2.18064e+01 -2.62758e+01
       H -2.26956e+01 -2.18727e+01 -2.59615e+01
       O -2.34397e+01  3.81275e-01 -2.19978e+01
       H -2.37359e+01 -3.57351e-01 -2.13939e+01
       H -2.39547e+01  3.00820e-01 -2.28482e+01
       O -2.04657e+01 -1.17021e+01 -1.58316e+01
       H -1.96507e+01 -1.17578e+01 -1.63650e+01
       H -2.03548e+01 -1.09269e+01 -1.52704e+01
       O -2.21458e+01 -2.51825e+01  7.54820e+00
       H -2.29669e+01 -2.48310e+01  7.34962e+00
       H -2.17311e+01 -2.51821e+01  6.67913e+00
       O  3.86168e+00 -1.28271e+01 -7.95394e+00
       H  3.55878e+00 -1.31859e+01 -8.78126e+00
       H  3.36823e+00 -1.33495e+01 -7.24183e+00
       O -1.48402e+01 -2.59358e+01 -3.03006e+01
       H -1.41181e+01 -2.64624e+01 -3.05928e+01
       H -1.54156e+01 -2.66493e+01 -2.99278e+01
       O -1.56481e+01 -1.95774e+01 -2.81442e+01
       H -1.50268e+01 -2.01966e+01 -2.85532e+01
       H -1.54342e+01 -1.86612e+01 -2.84475e+01
       O -2.60048e+01 -3.15827e+01 -1.06972e+00
       H -2.68235e+01 -3.15303e+01 -5.57512e-01
       H -2.56506e+01 -3.06627e+01 -1.06317e+00
       O -2.69489e+01 -2.49816e+01 -3.28221e+01
       H -2.76155e+01 -2.55824e+01 -3.31206e+01
       H -2.73243e+01 -2.41636e+01 -3.32246e+01
       O -3.43081e-01 -1.66394e+01  1.23375e+01
       H -1.15072e+00 -1.70526e+01  1.19658e+01
       H  3.35828e-01 -1.69675e+01  1.17633e+01
       O -3.72025e+01 -9.86354e+00  2.24017e-01
       H -3.75265e+01 -9.80698e+00 -6.90916e-01
       H -3.80000e+01 -9.81085e+00  7.71326e-01
       O -2.07787e+01 -2.59528e+01 -1.65578e-01
       H -2.11510e+01 -2.57936e+01  7.28956e-01
       H -2.00099e+01 -2.55015e+01 -5.19125e-02
       O -1.93014e+01 -2.69960e+01 -2.73917e+01
       H -2.02001e+01 -2.68762e+01 -2.76252e+01
       H -1.89422e+01 -2.68963e+01 -2.83256e+01
       O -6.66049e+00 -1.78044e+01 -1.16410e+01
       H -5.71954e+00 -1.81218e+01 -1.14381e+01
       H -6.85073e+00 -1.74606e+01 -1.07731e+01
       O -1.20257e+01 -1.44008e+01 -1.14210e+01
       H -1.13044e+01 -1.42066e+01 -1.07503e+01
       H -1.16777e+01 -1.51990e+01 -1.18213e+01
       O -2.33230e+01  1.48594e+01 -1.51211e+01
       H -2.41897e+01  1.52219e+01 -1.49140e+01
       H -2.29126e+01  1.46605e+01 -1.42271e+01
       O -8.77339e+00 -2.72690e+01 -2.15829e+01
       H -8.53198e+00 -2.72469e+01 -2.06625e+01
       H -7.92693e+00 -2.68865e+01 -2.20491e+01
       O -1.10387e+01 -2.04890e+01 -3.86125e+01
       H -1.08910e+01 -1.96426e+01 -3.90577e+01
       H -1.10903e+01 -2.02235e+01 -3.76692e+01
       O -8.31885e+00 -2.33757e+01 -1.41930e+01
       H -8.50432e+00 -2.25181e+01 -1.37445e+01
       H -9.20661e+00 -2.37574e+01 -1.44035e+01
       O -1.19953e+01  3.76635e+00 -1.80401e+01
       H -1.26589e+01  4.40114e+00 -1.82317e+01
       H -1.17813e+01  3.51663e+00 -1.89827e+01
       O -1.77452e+01 -2.25540e+01 -3.41663e+01
       H -1.71093e+01 -2.32202e+01 -3.43315e+01
       H -1.82099e+01 -2.30483e+01 -3.34954e+01
       O -4.51944e+01 -2.79019e+01 -1.53798e+01
       H -4.58239e+01 -2.72860e+01 -1.50744e+01
       H -4.45422e+01 -2.73243e+01 -1.58030e+01
       O -1.59501e+01 -2.18506e+01  1.06053e+01
       H -1.56810e+01 -2.27479e+01  1.03146e+01
       H -1.68570e+01 -2.18517e+01  1.01718e+01
       O -4.84723e+00 -4.65705e+00 -3.10251e+00
       H -4.58304e+00 -4.01638e+00 -2.38975e+00
       H -4.39760e+00 -4.34430e+00 -3.91425e+00
       O -1.45710e+01 -2.53259e+01 -1.45553e+01
       H -1.41706e+01 -2.46734e+01 -1.51671e+01
       H -1.52533e+01 -2.56742e+01 -1.51437e+01
       O  1.36556e+00 -1.10501e+01  1.17747e+01
       H  1.03078e+00 -1.19539e+01  1.20790e+01
       H  7.50041e-01 -1.03442e+01  1.20275e+01
       O -9.39461e+00 -3.36856e+00 -9.58001e+00
       H -1.00138e+01 -3.39896e+00 -8.77559e+00
       H -8.83248e+00 -4.10248e+00 -9.40473e+00
       O  1.13678e+01  9.85153e+00 -2.84886e-02
       H  1.04596e+01  9.89613e+00  4.05082e-01
       H  1.14726e+01  1.06925e+01 -5.18045e-01
       O -1.42605e+01 -4.92078e+00 -3.13818e+01
       H -1.34078e+01 -5.30512e+00 -3.11222e+01
       H -1.41460e+01 -3.97209e+00 -3.11715e+01
       O -6.39174e+00 -1.05389e+01 -3.06465e+01
       H -6.11307e+00 -1.08151e+01 -2.97417e+01
       H -7.16832e+00 -1.00483e+01 -3.03780e+01
       O -1.74048e+01 -1.14897e+01 -2.56822e+01
       H -1.73897e+01 -1.23299e+01 -2.52111e+01
       H -1.79274e+01 -1.16413e+01 -2.64928e+01
       O -1.82840e+01 -3.12348e+01 -3.14256e+01
       H -1.75560e+01 -3.07542e+01 -3.08908e+01
       H -1.77851e+01 -3.20085e+01 -3.17664e+01
       O -5.94791e+00 -3.11145e-01 -2.17197e-01
       H -6.44097e+00 -1.13788e+00 -5.85063e-02
       H -6.17974e+00  2.14028e-01  5.42971e-01
       O -1.71549e+01 -2.14637e+01 -3.77130e+00
       H -1.74829e+01 -2.22589e+01 -4.22974e+00
       H -1.61661e+01 -2.16490e+01 -3.76452e+00
       O -1.57082e+00 -4.28420e+00 -1.40754e+01
       H -6.45237e-01 -3.95413e+00 -1.42303e+01
       H -1.55036e+00 -4.68937e+00 -1.31693e+01
       O -2.80930e+00 -1.56843e+01 -5.11015e+00
       H -2.36980e+00 -1.48048e+01 -5.22175e+00
       H -2.29542e+00 -1.61130e+01 -4.37545e+00
       O  1.68502e+01  1.34238e+01 -2.43565e+01
       H  1.65219e+01  1.25871e+01 -2.39285e+01
       H  1.66324e+01  1.32399e+01 -2.53636e+01
       O -2.23589e+01 -1.95897e+01 -4.04787e+00
       H -2.20488e+01 -1.86371e+01 -4.07006e+00
       H -2.18504e+01 -1.99197e+01 -4.74715e+00
       O -2.18012e+01 -3.53573e+01 -1.09756e+01
       H -2.14228e+01 -3.47948e+01 -1.02457e+01
       H -2.09977e+01 -3.59111e+01 -1.11409e+01
       O -7.82357e+00 -2.27495e+01 -7.42431e+00
       H -7.66799e+00 -2.22499e+01 -8.26860e+00
       H -7.19888e+00 -2.34740e+01 -7.52968e+00
       O -6.15814e+00 -2.72796e+01 -1.74691e+01
       H -5.64653e+00 -2.67430e+01 -1.81118e+01
       H -5.80527e+00 -2.81650e+01 -1.75070e+01
       O -1.84585e+01 -4.70487e+00 -1.70801e+01
       H -1.93007e+01 -4.29312e+00 -1.71811e+01
       H -1.83718e+01 -5.11857e+00 -1.62106e+01
       O -1.90254e+01 -2.73672e+01 -2.02461e+01
       H -1.93080e+01 -2.68912e+01 -2.10701e+01
       H -1.81210e+01 -2.75504e+01 -2.04513e+01
       O -1.17063e+01 -1.92813e+00 -3.19189e+00
       H -1.21359e+01 -2.02909e+00 -2.27859e+00
       H -1.11104e+01 -2.69915e+00 -3.22045e+00
       O -1.98616e+01 -4.34523e+01 -5.05577e+01
       H -2.06096e+01 -4.33997e+01 -5.11510e+01
       H -2.01766e+01 -4.42095e+01 -5.00611e+01
       O -1.59476e+01 -1.90598e+01 -7.91775e+00
       H -1.55927e+01 -1.98023e+01 -7.46056e+00
       H -1.66241e+01 -1.95119e+01 -8.53444e+00
       O -1.86335e+01 -3.54903e+01 -2.30740e+01
       H -1.82145e+01 -3.60356e+01 -2.23621e+01
       H -1.84124e+01 -3.45809e+01 -2.27460e+01
       O -1.46280e+01 -1.44830e+01 -1.23653e+01
       H -1.37545e+01 -1.43787e+01 -1.19508e+01
       H -1.51352e+01 -1.49563e+01 -1.16886e+01
       O -2.77362e+01 -1.88987e+01 -2.17309e+01
       H -2.74917e+01 -1.80992e+01 -2.22301e+01
       H -2.74796e+01 -1.95346e+01 -2.23904e+01
       O -1.43469e+01 -1.34249e+01 -3.15080e+00
       H -1.35239e+01 -1.30749e+01 -2.83453e+00
       H -1.41510e+01 -1.43429e+01 -3.02380e+00
       O -8.14645e+00 -2.40642e+01 -4.49581e+01
       H -7.98900e+00 -2.49870e+01 -4.46718e+01
       H -8.33295e+00 -2.36173e+01 -4.41459e+01
       O -3.55473e+00 -2.45255e+01 -1.68179e+01
       H -4.28153e+00 -2.48305e+01 -1.62425e+01
       H -3.95598e+00 -2.41803e+01 -1.76422e+01
       O -2.09099e+01 -1.36243e+01 -1.37037e+01
       H -2.02941e+01 -1.34600e+01 -1.43874e+01
       H -2.04335e+01 -1.32348e+01 -1.29467e+01
       O -2.51996e+01 -7.58946e+00 -1.75214e+01
       H -2.58062e+01 -8.33489e+00 -1.75394e+01
       H -2.50267e+01 -7.29805e+00 -1.84404e+01
       O -2.40266e+00 -1.43205e+00 -2.08810e+01
       H -1.76228e+00 -2.14991e+00 -2.06718e+01
       H -3.12181e+00 -1.87310e+00 -2.04508e+01
       O -2.57527e+00 -1.54592e+00  1.08726e+01
       H -1.71667e+00 -1.94121e+00  1.10256e+01
       H -2.51393e+00 -8.36996e-01  1.14063e+01
       O -1.99591e+01 -2.34477e+01  1.15126e+01
       H -2.04897e+01 -2.40958e+01  1.10598e+01
       H -2.02540e+01 -2.34809e+01  1.23874e+01
       O -2.01427e+01 -1.14305e+01 -6.89537e+00
       H -2.00054e+01 -1.19797e+01 -7.69219e+00
       H -2.05323e+01 -1.06124e+01 -7.23745e+00
       O -3.36795e+01 -1.46106e+01 -7.09213e+00
       H -3.33571e+01 -1.46025e+01 -8.02315e+00
       H -3.29281e+01 -1.49783e+01 -6.60068e+00
       O -4.13972e-02 -7.59436e+00 -4.41033e+00
       H  3.11943e-01 -6.71685e+00 -4.49936e+00
       H  7.01183e-01 -8.21197e+00 -4.57861e+00
       O -2.51920e+01 -1.52746e+01 -4.81951e+01
       H -2.49122e+01 -1.58913e+01 -4.89173e+01
       H -2.56073e+01 -1.59262e+01 -4.75989e+01
       O -1.11882e+01 -2.44490e+01 -1.41747e+01
       H -1.17524e+01 -2.41970e+01 -1.49427e+01
       H -1.16583e+01 -2.42834e+01 -1.33757e+01
       O -6.53895e-01 -1.27589e+01 -2.30539e+01
       H -1.23626e+00 -1.20347e+01 -2.34022e+01
       H  7.23525e-02 -1.21060e+01 -2.29140e+01
       O -5.12444e+01 -1.22407e+01 -2.91988e+00
       H -5.05058e+01 -1.17496e+01 -2.48856e+00
       H -5.08283e+01 -1.31633e+01 -2.85244e+00
       O -4.21073e+00 -1.26169e+01 -9.56153e+00
       H -3.76282e+00 -1.22715e+01 -8.74019e+00
       H -4.44063e+00 -1.17874e+01 -9.99168e+00
       O -1.53251e+01 -1.58264e+01  2.47133e+01
       H -1.47914e+01 -1.66175e+01  2.44231e+01
       H -1.46860e+01 -1.51348e+01  2.47334e+01
       O -1.20365e+01 -3.61138e+01 -3.76763e+01
       H -1.19882e+01 -3.55585e+01 -3.68858e+01
       H -1.22933e+01 -3.53720e+01 -3.83002e+01
       O -1.40650e+01 -1.85632e+01 -1.25500e+01
       H -1.31722e+01 -1.85620e+01 -1.30732e+01
       H -1.39586e+01 -1.92829e+01 -1.18855e+01
       O -1.39065e+01 -1.55536e+01  9.26653e+00
       H -1.42676e+01 -1.47574e+01  9.66512e+00
       H -1.30216e+01 -1.51664e+01  8.96871e+00
       O -1.34759e+01 -5.15172e+00 -5.78940e+00
       H -1.39573e+01 -4.72179e+00 -6.50343e+00
       H -1.34173e+01 -6.11235e+00 -6.08658e+00
       O -3.49972e+01 -1.00464e+01 -2.15087e+00
       H -3.49307e+01 -9.27359e+00 -1.53057e+00
       H -3.53357e+01 -9.64767e+00 -2.96727e+00
       O -1.87085e+01 -2.04066e+01 -3.12715e+01
       H -1.87472e+01 -2.06850e+01 -3.22175e+01
       H -1.77972e+01 -2.06858e+01 -3.11919e+01
       O -1.20423e+01 -1.30248e+01 -1.55027e+00
       H -1.19182e+01 -1.39532e+01 -1.67123e+00
       H -1.13125e+01 -1.27194e+01 -2.10553e+00
       O -1.38926e+01 -3.43709e+01 -3.52477e+00
       H -1.45846e+01 -3.46159e+01 -2.88770e+00
       H -1.31637e+01 -3.47648e+01 -3.11418e+00
       O -9.11683e+00 -4.17433e+01 -9.48405e+00
       H -8.40107e+00 -4.23704e+01 -9.14295e+00
       H -9.61771e+00 -4.23056e+01 -1.01140e+01
       O -1.88985e+00 -6.88331e+00 -1.85830e+00
       H -1.52048e+00 -7.18507e+00 -2.69191e+00
       H -2.22976e+00 -7.73266e+00 -1.48578e+00
       O -2.51504e+01 -2.61292e+01  2.39723e-01
       H -2.48035e+01 -2.54871e+01 -4.01277e-01
       H -2.61396e+01 -2.60666e+01  8.58846e-02
       O  3.65617e+00  6.26160e+00  2.13400e+00
       H  2.67213e+00  6.34199e+00  2.18805e+00
       H  3.79279e+00  6.27228e+00  1.18338e+00
       O -1.05834e+01 -3.05908e+01 -1.24496e+01
       H -1.00129e+01 -3.13998e+01 -1.26029e+01
       H -1.00307e+01 -2.98399e+01 -1.27797e+01
       O -1.60395e+01 -2.48483e+01 -4.08758e+00
       H -1.52167e+01 -2.45725e+01 -3.70513e+00
       H -1.58033e+01 -2.51414e+01 -4.99257e+00
       O -2.29639e+01 -2.28269e+01 -1.35318e+01
       H -2.23251e+01 -2.20962e+01 -1.36648e+01
       H -2.31042e+01 -2.26493e+01 -1.25965e+01
       O -4.53792e+00 -7.34642e+00 -4.07506e+00
       H -5.12009e+00 -6.78997e+00 -3.65568e+00
       H -3.92105e+00 -6.62929e+00 -4.29574e+00
       O -5.57328e+00 -1.23011e+01 -1.47070e+01
       H -5.41395e+00 -1.18350e+01 -1.55885e+01
       H -6.52857e+00 -1.24443e+01 -1.46941e+01
       O -1.75275e+01 -2.63646e+01 -8.66395e+00
       H -1.70206e+01 -2.58064e+01 -9.22555e+00
       H -1.75289e+01 -2.72374e+01 -9.09494e+00
       O  1.15003e+00 -1.63048e+01 -5.32132e+00
       H  1.89819e+00 -1.56312e+01 -5.51621e+00
       H  4.91215e-01 -1.61114e+01 -5.99035e+00
       O -9.89338e+00 -2.68595e+01 -1.52524e+01
       H -1.04517e+01 -2.61549e+01 -1.48560e+01
       H -9.48770e+00 -2.63903e+01 -1.60079e+01
       O -1.95133e+01 -1.26675e+01 -2.21782e+01
       H -1.93157e+01 -1.17197e+01 -2.21489e+01
       H -1.88279e+01 -1.29413e+01 -2.27791e+01
       O -2.58543e+01  3.43363e-01 -7.74871e+00
       H -2.53404e+01  1.83283e-01 -6.94356e+00
       H -2.53347e+01  1.14409e+00 -8.01013e+00
       O -1.07785e+01 -4.73326e+00 -5.35635e+00
       H -1.16891e+01 -4.86474e+00 -5.17153e+00
       H -1.03151e+01 -5.03404e+00 -4.54716e+00
       O -2.50201e+01 -1.54995e+00 -9.78783e+00
       H -2.56378e+01 -2.24370e+00 -9.78283e+00
       H -2.53971e+01 -9.34506e-01 -9.15358e+00
       O -2.40775e+00  1.38945e+00 -1.66154e+01
       H -1.79476e+00  1.52159e+00 -1.73375e+01
       H -2.87570e+00  2.28540e+00 -1.68005e+01
       O -1.97023e+01 -6.72402e+00 -4.20894e-01
       H -2.04813e+01 -6.98867e+00 -9.53131e-01
       H -1.92356e+01 -7.59283e+00 -2.56100e-01
       O -1.47961e+01 -1.92104e+01 -4.70625e+00
       H -1.40280e+01 -1.88289e+01 -5.24496e+00
       H -1.49585e+01 -2.00380e+01 -5.14500e+00
       O  5.28009e+00  9.02499e+00  4.34978e+00
       H  4.74805e+00  8.60841e+00  5.08239e+00
       H  5.36973e+00  9.88710e+00  4.76147e+00
       O -2.71061e+01 -2.05218e+01 -2.42586e+00
       H -2.66031e+01 -2.13343e+01 -2.62808e+00
       H -2.70073e+01 -2.04127e+01 -1.45981e+00
       O -5.08829e+00 -1.82438e+01 -2.89213e+01
       H -4.50573e+00 -1.75959e+01 -2.84488e+01
       H -4.41104e+00 -1.87769e+01 -2.93140e+01
       O -3.98663e+00 -5.85374e+00 -1.47266e+01
       H -4.47188e+00 -5.94083e+00 -1.39371e+01
       H -3.20662e+00 -5.35584e+00 -1.45774e+01
       O -5.67199e+00 -2.08504e+01 -8.64267e-02
       H -4.82609e+00 -2.08410e+01  4.09794e-01
       H -5.94181e+00 -2.17085e+01  2.64037e-01
       O -2.41312e+01 -1.46572e+01 -1.73689e+01
       H -2.32927e+01 -1.44150e+01 -1.70339e+01
       H -2.42732e+01 -1.52528e+01 -1.66700e+01
       O -1.80372e+01 -1.00258e+01 -2.04133e+01
       H -1.78562e+01 -1.01886e+01 -2.13249e+01
       H -1.71830e+01 -1.01237e+01 -1.99925e+01
       O -2.00231e+01 -1.76110e+01 -1.30913e+01
       H -2.06441e+01 -1.73809e+01 -1.22977e+01
       H -2.05037e+01 -1.71532e+01 -1.37382e+01
       O -1.06180e+01 -2.22045e+01 -1.59760e+01
       H -9.71559e+00 -2.18574e+01 -1.62471e+01
       H -1.07226e+01 -2.18509e+01 -1.50734e+01
       O -2.07082e+01  4.62965e+00 -2.17507e+01
       H -2.10846e+01  4.97594e+00 -2.08945e+01
       H -1.97628e+01  4.66135e+00 -2.14911e+01
       O  7.06357e+00 -1.89930e+01 -1.88252e+01
       H  7.03299e+00 -1.93300e+01 -1.79057e+01
       H  6.89790e+00 -1.97759e+01 -1.93618e+01
       O -1.03970e+01 -3.48222e+01 -1.01219e+01
       H -1.10186e+01 -3.40355e+01 -1.01848e+01
       H -1.07980e+01 -3.53001e+01 -9.33202e+00
       O -2.12082e+01 -1.09101e+01  6.80161e+00
       H -2.04239e+01 -1.09101e+01  7.33707e+00
       H -2.18610e+01 -1.13524e+01  7.34502e+00
       O -2.00270e+01 -2.34268e+01 -1.48619e+01
       H -2.04240e+01 -2.25725e+01 -1.48511e+01
       H -2.02398e+01 -2.37079e+01 -1.39550e+01
       O -7.71089e+00 -1.75134e+01 -1.87179e+01
       H -8.54122e+00 -1.77785e+01 -1.82671e+01
       H -7.33330e+00 -1.68989e+01 -1.80949e+01
       O -4.03884e+01 -2.57375e+01 -2.49637e+01
       H -3.94740e+01 -2.56091e+01 -2.46514e+01
       H -4.03102e+01 -2.55996e+01 -2.59279e+01
       O -4.15080e+01 -1.94115e+01 -9.23258e+00
       H -4.07209e+01 -1.89426e+01 -9.55825e+00
       H -4.12972e+01 -2.03064e+01 -9.66317e+00
       O -3.57634e+00 -2.20374e+00  2.23337e+00
       H -3.94692e+00 -1.23662e+00  2.32045e+00
       H -2.68078e+00 -2.04096e+00  1.90853e+00
       O -9.38551e+00 -2.13878e+01 -4.76708e+01
       H -9.98384e+00 -2.19236e+01 -4.72002e+01
       H -8.65488e+00 -2.11683e+01 -4.70565e+01
       O -6.55091e+00 -2.51333e+01 -2.95639e+01
       H -6.55255e+00 -2.42359e+01 -2.92221e+01
       H -7.56003e+00 -2.53093e+01 -2.94306e+01
       O -7.02479e+00 -1.47019e+01  1.03591e+00
       H -6.06895e+00 -1.45326e+01  9.45475e-01
       H -6.93102e+00 -1.55371e+01  1.53557e+00
       O -4.46072e+01 -1.39755e+01 -5.41837e+00
       H -4.36298e+01 -1.38909e+01 -5.49235e+00
       H -4.48235e+01 -1.37947e+01 -4.51143e+00
       O -2.31657e+01 -1.12078e+01 -3.09646e+00
       H -2.30075e+01 -1.19530e+01 -3.66163e+00
       H -2.22253e+01 -1.09219e+01 -3.01458e+00
       O -2.69240e+01  1.54745e+01 -9.29297e+00
       H -2.78763e+01  1.51430e+01 -9.34194e+00
       H -2.65029e+01  1.47835e+01 -9.82572e+00
       O  9.92506e+00  2.41334e-01  2.27283e+00
       H  1.05152e+01  9.87120e-01  2.41825e+00
       H  9.87802e+00  3.45177e-01  1.30668e+00
       O -1.22510e+01 -3.53280e+00  2.01618e+00
       H -1.25357e+01 -3.35384e+00  2.98267e+00
       H -1.30353e+01 -3.96125e+00  1.62189e+00
       O -1.85253e+01 -2.02182e+01 -1.16026e+01
       H -1.90637e+01 -2.08697e+01 -1.20649e+01
       H -1.89741e+01 -1.94753e+01 -1.20109e+01
       O -4.61698e+01 -1.77201e+01  1.06063e+01
       H -4.67775e+01 -1.77759e+01  9.78136e+00
       H -4.54186e+01 -1.80302e+01  1.01637e+01
       O -1.77207e+01  6.39576e+00 -2.56481e+01
       H -1.78337e+01  5.66353e+00 -2.62808e+01
       H -1.77543e+01  7.21605e+00 -2.62582e+01
       O -1.55612e+01 -2.09283e+01 -2.55151e+01
       H -1.63590e+01 -2.07021e+01 -2.49358e+01
       H -1.57810e+01 -2.02930e+01 -2.62502e+01
       O -1.35644e+01 -1.97574e+01  9.80634e-01
       H -1.37282e+01 -1.94798e+01  7.25517e-02
       H -1.29212e+01 -1.90372e+01  1.23669e+00
       O -9.88945e+00 -3.45957e+00 -2.80014e+01
       H -9.08155e+00 -2.87863e+00 -2.80770e+01
       H -1.01980e+01 -3.39515e+00 -2.71294e+01
       O -1.73508e+01 -9.96391e+00 -1.07955e+01
       H -1.67108e+01 -9.37793e+00 -1.12817e+01
       H -1.67491e+01 -1.07317e+01 -1.06021e+01
       O -1.04967e+01 -1.14633e+01  3.71734e+00
       H -1.06979e+01 -1.16092e+01  2.78053e+00
       H -1.13312e+01 -1.17327e+01  4.18365e+00
       O -2.75852e+01  4.92991e-02 -2.27210e+01
       H -2.78062e+01 -8.86190e-01 -2.29176e+01
       H -2.67287e+01  8.43241e-03 -2.32232e+01
       O -3.35404e+01 -2.27773e+01 -6.65499e+00
       H -3.36699e+01 -2.29120e+01 -7.62345e+00
       H -3.26423e+01 -2.32163e+01 -6.53098e+00
       O -1.61130e+01 -2.78326e+01 -1.24254e+01
       H -1.64859e+01 -2.83149e+01 -1.17056e+01
       H -1.63790e+01 -2.83112e+01 -1.32594e+01
       O -9.50589e+00 -1.66930e+01 -3.66511e+01
       H -8.89106e+00 -1.59819e+01 -3.64625e+01
       H -1.00942e+01 -1.67066e+01 -3.58589e+01
       O -1.38421e+01 -1.03842e+01 -5.00614e+00
       H -1.34558e+01 -9.91134e+00 -4.28811e+00
       H -1.47463e+01 -1.05032e+01 -4.67515e+00
       O -1.98671e+01 -2.92462e+01 -3.84441e+01
       H -1.90915e+01 -2.95394e+01 -3.89468e+01