4
# CELL(abcABC): 1000.00000  1000.00000  1000.00000    90.00000    90.00000    90.00000  Step:           0  Bead:       0 positions{angstrom}  cell{angstrom}
       O -3.11886e+00  1.07137e+00  3.55910e-01
       H -3.08121e+00  1.31708e-01  5.05403e-01
       H -3.57972e+00  1.51956e+00  1.08709e+00
       H -3.21808e+00  1.41282e+00 -5.56327e-01
4
# CELL(abcABC): 1000.00000  1000.00000  1000.00000    90.00000    90.00000    90.00000  Step:           1  Bead:       0 positions{angstrom}  cell{angstrom}
       O -3.11739e+00  1.07168e+00  3.55351e-01
       H -3.09051e+00  1.25442e-01  5.10391e-01
       H -3.57775e+00  1.51757e+00  1.08722e+00
       H -3.23415e+00  1.41622e+00 -5.52571e-01
4
# CELL(abcABC): 1000.00000  1000.00000  1000.00000    90.00000    90.00000    90.00000  Step:           2  Bead:       0 positions{angstrom}  cell{angstrom}
       O -3.11642e+00  1.07193e+00  3.54777e-01
       H -3.09911e+00  1.22137e-01  5.17088e-01
       H -3.57061e+00  1.51313e+00  1.08535e+00
       H -3.24805e+00  1.41991e+00 -5.48291e-01
4
# CELL(abcABC): 1000.00000  1000.00000  1000.00000    90.00000    90.00000    90.00000  Step:           3  Bead:       0 positions{angstrom}  cell{angstrom}
       O -3.11581e+00  1.07213e+00  3.54112e-01
       H -3.10620e+00  1.20916e-01  5.26516e-01
       H -3.56053e+00  1.50795e+00  1.08268e+00
       H -3.26062e+00  1.42318e+00 -5.44490e-01
4
# CELL(abcABC): 1000.00000  1000.00000  1000.00000    90.00000    90.00000    90.00000  Step:           4  Bead:       0 positions{angstrom}  cell{angstrom}
       O -3.11561e+00  1.07223e+00  3.53490e-01
       H -3.11241e+00  1.22015e-01  5.35538e-01
       H -3.54718e+00  1.50239e+00  1.07895e+00
       H -3.27102e+00  1.42609e+00 -5.39911e-01
4
# CELL(abcABC): 1000.00000  1000.00000  1000.00000    90.00000    90.00000    90.00000  Step:           5  Bead:       0 positions{angstrom}  cell{angstrom}
       O -3.11564e+00  1.07201e+00  3.52828e-01
       H -3.11819e+00  1.26593e-01  5.44742e-01
       H -3.53258e+00  1.49791e+00  1.07674e+00
       H -3.27939e+00  1.42939e+00 -5.36387e-01
4
# CELL(abcABC): 1000.00000  1000.00000  1000.00000    90.00000    90.00000    90.00000  Step:           6  Bead:       0 positions{angstrom}  cell{angstrom}
       O -3.11584e+00  1.07166e+00  3.52072e-01
       H -3.12263e+00  1.34387e-01  5.53277e-01
       H -3.51742e+00  1.49265e+00  1.07513e+00
       H -3.28683e+00  1.43250e+00 -5.31320e-01
4
# CELL(abcABC): 1000.00000  1000.00000  1000.00000    90.00000    90.00000    90.00000  Step:           7  Bead:       0 positions{angstrom}  cell{angstrom}
       O -3.11635e+00  1.07099e+00  3.50936e-01
       H -3.12424e+00  1.44210e-01  5.63276e-01
       H -3.50194e+00  1.48869e+00  1.07703e+00
       H -3.29275e+00  1.43725e+00 -5.25180e-01
4
# CELL(abcABC): 1000.00000  1000.00000  1000.00000    90.00000    90.00000    90.00000  Step:           8  Bead:       0 positions{angstrom}  cell{angstrom}
       O -3.11715e+00  1.07016e+00  3.49625e-01
       H -3.12338e+00  1.54849e-01  5.72750e-01
       H -3.48539e+00  1.48599e+00  1.08170e+00
       H -3.29732e+00  1.44251e+00 -5.18520e-01
4
# CELL(abcABC): 1000.00000  1000.00000  1000.00000    90.00000    90.00000    90.00000  Step:           9  Bead:       0 positions{angstrom}  cell{angstrom}
       O -3.11822e+00  1.06930e+00  3.47935e-01
       H -3.12089e+00  1.64046e-01  5.83495e-01
       H -3.46790e+00  1.48592e+00  1.09074e+00
       H -3.30046e+00  1.44694e+00 -5.11479e-01
4
# CELL(abcABC): 1000.00000  1000.00000  1000.00000    90.00000    90.00000    90.00000  Step:          10  Bead:       0 positions{angstrom}  cell{angstrom}
       O -3.11950e+00  1.06835e+00  3.46143e-01
       H -3.11654e+00  1.71443e-01  5.93600e-01
       H -3.45018e+00  1.48894e+00  1.10247e+00
       H -3.30220e+00  1.45169e+00 -5.04858e-01
4
# CELL(abcABC): 1000.00000  1000.00000  1000.00000    90.00000    90.00000    90.00000  Step:          11  Bead:       0 positions{angstrom}  cell{angstrom}
       O -3.12101e+00  1.06745e+00  3.44334e-01
       H -3.11013e+00  1.76898e-01  6.02485e-01
       H -3.43334e+00  1.49364e+00  1.11628e+00
       H -3.30150e+00  1.45573e+00 -4.98856e-01
4
# CELL(abcABC): 1000.00000  1000.00000  1000.00000    90.00000    90.00000    90.00000  Step:          12  Bead:       0 positions{angstrom}  cell{angstrom}
       O -3.12291e+00  1.06675e+00  3.42539e-01
       H -3.10054e+00  1.78974e-01  6.11075e-01
       H -3.41576e+00  1.49843e+00  1.13029e+00
       H -3.29843e+00  1.46000e+00 -4.92954e-01
4
# CELL(abcABC): 1000.00000  1000.00000  1000.00000    90.00000    90.00000    90.00000  Step:          13  Bead:       0 positions{angstrom}  cell{angstrom}
       O -3.12516e+00  1.06625e+00  3.40764e-01
       H -3.08901e+00  1.78498e-01  6.19795e-01
       H -3.39577e+00  1.50370e+00  1.14419e+00
       H -3.29417e+00  1.46322e+00 -4.87399e-01
4
# CELL(abcABC): 1000.00000  1000.00000  1000.00000    90.00000    90.00000    90.00000  Step:          14  Bead:       0 positions{angstrom}  cell{angstrom}
       O -3.12777e+00  1.06591e+00  3.39087e-01
       H -3.07435e+00  1.75159e-01  6.28599e-01
       H -3.37396e+00  1.50960e+00  1.15678e+00
       H -3.28934e+00  1.46601e+00 -4.82173e-01
4
# CELL(abcABC): 1000.00000  1000.00000  1000.00000    90.00000    90.00000    90.00000  Step:          15  Bead:       0 positions{angstrom}  cell{angstrom}
       O -3.13057e+00  1.06562e+00  3.37421e-01
       H -3.06012e+00  1.69782e-01  6.38890e-01
       H -3.35142e+00  1.51556e+00  1.16723e+00
       H -3.28165e+00  1.47010e+00 -4.76466e-01
4
# CELL(abcABC): 1000.00000  1000.00000  1000.00000    90.00000    90.00000    90.00000  Step:          16  Bead:       0 positions{angstrom}  cell{angstrom}
       O -3.13363e+00  1.06534e+00  3.36065e-01
       H -3.04367e+00  1.63861e-01  6.47702e-01
       H -3.32782e+00  1.52176e+00  1.17459e+00
       H -3.27301e+00  1.47425e+00 -4.71110e-01
4
# CELL(abcABC): 1000.00000  1000.00000  1000.00000    90.00000    90.00000    90.00000  Step:          17  Bead:       0 positions{angstrom}  cell{angstrom}
       O -3.13677e+00  1.06507e+00  3.35082e-01
       H -3.02574e+00  1.59555e-01  6.55116e-01
       H -3.30428e+00  1.52757e+00  1.17726e+00
       H -3.26465e+00  1.47701e+00 -4.65602e-01
4
# CELL(abcABC): 1000.00000  1000.00000  1000.00000    90.00000    90.00000    90.00000  Step:          18  Bead:       0 positions{angstrom}  cell{angstrom}
       O -3.13997e+00  1.06466e+00  3.34514e-01
       H -3.00850e+00  1.58283e-01  6.60695e-01
       H -3.27902e+00  1.53225e+00  1.17596e+00
       H -3.25645e+00  1.48004e+00 -4.60852e-01
4
# CELL(abcABC): 1000.00000  1000.00000  1000.00000    90.00000    90.00000    90.00000  Step:          19  Bead:       0 positions{angstrom}  cell{angstrom}
       O -3.14327e+00  1.06421e+00  3.34349e-01
       H -2.99090e+00  1.59683e-01  6.64452e-01
       H -3.25430e+00  1.53534e+00  1.17031e+00
       H -3.24630e+00  1.48267e+00 -4.56356e-01
4
# CELL(abcABC): 1000.00000  1000.00000  1000.00000    90.00000    90.00000    90.00000  Step:          20  Bead:       0 positions{angstrom}  cell{angstrom}
       O -3.14653e+00  1.06369e+00  3.34636e-01
       H -2.97361e+00  1.64565e-01  6.64362e-01
       H -3.23074e+00  1.53786e+00  1.16190e+00
       H -3.23545e+00  1.48359e+00 -4.52418e-01
4
# CELL(abcABC): 1000.00000  1000.00000  1000.00000    90.00000    90.00000    90.00000  Step:          21  Bead:       0 positions{angstrom}  cell{angstrom}
       O -3.14977e+00  1.06303e+00  3.35332e-01
       H -2.95742e+00  1.71733e-01  6.60655e-01
       H -3.20613e+00  1.54077e+00  1.15242e+00
       H -3.22485e+00  1.48391e+00 -4.50274e-01
4
# CELL(abcABC): 1000.00000  1000.00000  1000.00000    90.00000    90.00000    90.00000  Step:          22  Bead:       0 positions{angstrom}  cell{angstrom}
       O -3.15294e+00  1.06218e+00  3.36384e-01
       H -2.94322e+00  1.80203e-01  6.55663e-01
       H -3.18015e+00  1.54431e+00  1.14039e+00
       H -3.21462e+00  1.48544e+00 -4.49949e-01
4
# CELL(abcABC): 1000.00000  1000.00000  1000.00000    90.00000    90.00000    90.00000  Step:          23  Bead:       0 positions{angstrom}  cell{angstrom}
       O -3.15600e+00  1.06121e+00  3.37781e-01
       H -2.92985e+00  1.90542e-01  6.48231e-01
       H -3.15414e+00  1.54942e+00  1.12913e+00
       H -3.20549e+00  1.48542e+00 -4.53422e-01
4
# CELL(abcABC): 1000.00000  1000.00000  1000.00000    90.00000    90.00000    90.00000  Step:          24  Bead:       0 positions{angstrom}  cell{angstrom}
       O -3.15891e+00  1.06007e+00  3.39236e-01
       H -2.91686e+00  2.00062e-01  6.39363e-01
       H -3.12865e+00  1.55722e+00  1.11959e+00
       H -3.19770e+00  1.48614e+00 -4.58120e-01
4
# CELL(abcABC): 1000.00000  1000.00000  1000.00000    90.00000    90.00000    90.00000  Step:          25  Bead:       0 positions{angstrom}  cell{angstrom}
       O -3.16161e+00  1.05902e+00  3.40568e-01
       H -2.90477e+00  2.07596e-01  6.30518e-01
       H -3.10440e+00  1.56618e+00  1.11233e+00
       H -3.19122e+00  1.48636e+00 -4.63158e-01
4
# CELL(abcABC): 1000.00000  1000.00000  1000.00000    90.00000    90.00000    90.00000  Step:          26  Bead:       0 positions{angstrom}  cell{angstrom}
       O -3.16411e+00  1.05812e+00  3.41791e-01
       H -2.89340e+00  2.12534e-01  6.20692e-01
       H -3.08078e+00  1.57652e+00  1.10709e+00
       H -3.18658e+00  1.48538e+00 -4.67500e-01
4
# CELL(abcABC): 1000.00000  1000.00000  1000.00000    90.00000    90.00000    90.00000  Step:          27  Bead:       0 positions{angstrom}  cell{angstrom}
       O -3.16651e+00  1.05734e+00  3.42940e-01
       H -2.88284e+00  2.15854e-01  6.10321e-01
       H -3.05813e+00  1.58722e+00  1.10342e+00
       H -3.18173e+00  1.48364e+00 -4.71695e-01
4
# CELL(abcABC): 1000.00000  1000.00000  1000.00000    90.00000    90.00000    90.00000  Step:          28  Bead:       0 positions{angstrom}  cell{angstrom}
       O -3.16864e+00  1.05679e+00  3.43937e-01
       H -2.87390e+00  2.14667e-01  6.00226e-01
       H -3.03599e+00  1.59858e+00  1.10129e+00
       H -3.17894e+00  1.48232e+00 -4.75302e-01
4
# CELL(abcABC): 1000.00000  1000.00000  1000.00000    90.00000    90.00000    90.00000  Step:          29  Bead:       0 positions{angstrom}  cell{angstrom}
       O -3.17057e+00  1.05644e+00  3.44897e-01
       H -2.86493e+00  2.11023e-01  5.89253e-01
       H -3.01612e+00  1.60959e+00  1.09963e+00
       H -3.17720e+00  1.48052e+00 -4.77899e-01
4
# CELL(abcABC): 1000.00000  1000.00000  1000.00000    90.00000    90.00000    90.00000  Step:          30  Bead:       0 positions{angstrom}  cell{angstrom}
       O -3.17223e+00  1.05623e+00  3.45810e-01
       H -2.85644e+00  2.06180e-01  5.79602e-01
       H -2.99807e+00  1.61942e+00  1.09804e+00
       H -3.17734e+00  1.47876e+00 -4.81153e-01
4
# CELL(abcABC): 1000.00000  1000.00000  1000.00000    90.00000    90.00000    90.00000  Step:          31  Bead:       0 positions{angstrom}  cell{angstrom}
       O -3.17373e+00  1.05616e+00  3.46810e-01
       H -2.84752e+00  2.00079e-01  5.70682e-01
       H -2.98127e+00  1.62853e+00  1.09479e+00
       H -3.17932e+00  1.47697e+00 -4.84869e-01
4
# CELL(abcABC): 1000.00000  1000.00000  1000.00000    90.00000    90.00000    90.00000  Step:          32  Bead:       0 positions{angstrom}  cell{angstrom}
       O -3.17485e+00  1.05638e+00  3.47689e-01
       H -2.84101e+00  1.91647e-01  5.62857e-01
       H -2.96602e+00  1.63652e+00  1.09127e+00
       H -3.18315e+00  1.47380e+00 -4.87464e-01
4
# CELL(abcABC): 1000.00000  1000.00000  1000.00000    90.00000    90.00000    90.00000  Step:          33  Bead:       0 positions{angstrom}  cell{angstrom}
       O -3.17559e+00  1.05691e+00  3.48539e-01
       H -2.83700e+00  1.83187e-01  5.56640e-01
       H -2.95268e+00  1.64072e+00  1.08644e+00
       H -3.18890e+00  1.46972e+00 -4.89907e-01
4
# CELL(abcABC): 1000.00000  1000.00000  1000.00000    90.00000    90.00000    90.00000  Step:          34  Bead:       0 positions{angstrom}  cell{angstrom}
       O -3.17577e+00  1.05759e+00  3.49571e-01
       H -2.83490e+00  1.76216e-01  5.50510e-01
       H -2.94351e+00  1.64150e+00  1.08018e+00
       H -3.19730e+00  1.46513e+00 -4.93900e-01
4
# CELL(abcABC): 1000.00000  1000.00000  1000.00000    90.00000    90.00000    90.00000  Step:          35  Bead:       0 positions{angstrom}  cell{angstrom}
       O -3.17555e+00  1.05829e+00  3.50668e-01
       H -2.83373e+00  1.71584e-01  5.43802e-01
       H -2.93784e+00  1.64051e+00  1.07327e+00
       H -3.20755e+00  1.45960e+00 -4.97701e-01
4
# CELL(abcABC): 1000.00000  1000.00000  1000.00000    90.00000    90.00000    90.00000  Step:          36  Bead:       0 positions{angstrom}  cell{angstrom}
       O -3.17495e+00  1.05891e+00  3.51804e-01
       H -2.83502e+00  1.69841e-01  5.36730e-01
       H -2.93409e+00  1.63856e+00  1.06488e+00
       H -3.21953e+00  1.45351e+00 -5.00266e-01
4
# CELL(abcABC): 1000.00000  1000.00000  1000.00000    90.00000    90.00000    90.00000  Step:          37  Bead:       0 positions{angstrom}  cell{angstrom}
       O -3.17403e+00  1.05953e+00  3.52781e-01
       H -2.83829e+00  1.71849e-01  5.31678e-01
       H -2.93153e+00  1.63441e+00  1.05622e+00
       H -3.23345e+00  1.44575e+00 -5.02061e-01
4
# CELL(abcABC): 1000.00000  1000.00000  1000.00000    90.00000    90.00000    90.00000  Step:          38  Bead:       0 positions{angstrom}  cell{angstrom}
       O -3.17263e+00  1.06007e+00  3.53786e-01
       H -2.84489e+00  1.76195e-01  5.25861e-01
       H -2.93005e+00  1.62839e+00  1.04861e+00
       H -3.25058e+00  1.43884e+00 -5.04588e-01
4
# CELL(abcABC): 1000.00000  1000.00000  1000.00000    90.00000    90.00000    90.00000  Step:          39  Bead:       0 positions{angstrom}  cell{angstrom}
       O -3.17114e+00  1.06065e+00  3.54449e-01
       H -2.85263e+00  1.81673e-01  5.21232e-01
       H -2.92869e+00  1.62139e+00  1.04447e+00
       H -3.26777e+00  1.43124e+00 -5.06344e-01
4
# CELL(abcABC): 1000.00000  1000.00000  1000.00000    90.00000    90.00000    90.00000  Step:          40  Bead:       0 positions{angstrom}  cell{angstrom}
       O -3.16953e+00  1.06110e+00  3.54599e-01
       H -2.86167e+00  1.87974e-01  5.18486e-01
       H -2.92702e+00  1.61552e+00  1.04559e+00
       H -3.28596e+00  1.42365e+00 -5.07099e-01
4
# CELL(abcABC): 1000.00000  1000.00000  1000.00000    90.00000    90.00000    90.00000  Step:          41  Bead:       0 positions{angstrom}  cell{angstrom}
       O -3.16781e+00  1.06150e+00  3.54319e-01
       H -2.87179e+00  1.94428e-01  5.16471e-01
       H -2.92443e+00  1.61133e+00  1.05109e+00
       H -3.30576e+00  1.41505e+00 -5.06139e-01
4
# CELL(abcABC): 1000.00000  1000.00000  1000.00000    90.00000    90.00000    90.00000  Step:          42  Bead:       0 positions{angstrom}  cell{angstrom}
       O -3.16614e+00  1.06210e+00  3.53713e-01
       H -2.88063e+00  1.97036e-01  5.15500e-01
       H -2.92121e+00  1.60834e+00  1.06078e+00
       H -3.32662e+00  1.40583e+00 -5.05246e-01
4
# CELL(abcABC): 1000.00000  1000.00000  1000.00000    90.00000    90.00000    90.00000  Step:          43  Bead:       0 positions{angstrom}  cell{angstrom}
       O -3.16442e+00  1.06281e+00  3.52794e-01
       H -2.88952e+00  1.97648e-01  5.15623e-01
       H -2.91766e+00  1.60725e+00  1.07373e+00
       H -3.34859e+00  1.39512e+00 -5.03719e-01
4
# CELL(abcABC): 1000.00000  1000.00000  1000.00000    90.00000    90.00000    90.00000  Step:          44  Bead:       0 positions{angstrom}  cell{angstrom}
       O -3.16264e+00  1.06379e+00  3.51632e-01
       H -2.89773e+00  1.94306e-01  5.16583e-01
       H -2.91415e+00  1.60546e+00  1.08797e+00
       H -3.37216e+00  1.38459e+00 -5.00478e-01
4
# CELL(abcABC): 1000.00000  1000.00000  1000.00000    90.00000    90.00000    90.00000  Step:          45  Bead:       0 positions{angstrom}  cell{angstrom}
       O -3.16072e+00  1.06509e+00  3.50388e-01
       H -2.90598e+00  1.88067e-01  5.18198e-01
       H -2.91038e+00  1.60192e+00  1.10184e+00
       H -3.39821e+00  1.37383e+00 -4.96218e-01
4
# CELL(abcABC): 1000.00000  1000.00000  1000.00000    90.00000    90.00000    90.00000  Step:          46  Bead:       0 positions{angstrom}  cell{angstrom}
       O -3.15878e+00  1.06667e+00  3.49129e-01
       H -2.91389e+00  1.80195e-01  5.20447e-01
       H -2.90740e+00  1.59579e+00  1.11455e+00
       H -3.42411e+00  1.36273e+00 -4.91195e-01
4
# CELL(abcABC): 1000.00000  1000.00000  1000.00000    90.00000    90.00000    90.00000  Step:          47  Bead:       0 positions{angstrom}  cell{angstrom}
       O -3.15674e+00  1.06834e+00  3.48029e-01
       H -2.92150e+00  1.70898e-01  5.23678e-01
       H -2.90509e+00  1.58782e+00  1.12484e+00
       H -3.45117e+00  1.35341e+00 -4.87260e-01
4
# CELL(abcABC): 1000.00000  1000.00000  1000.00000    90.00000    90.00000    90.00000  Step:          48  Bead:       0 positions{angstrom}  cell{angstrom}
       O -3.15461e+00  1.07022e+00  3.47016e-01
       H -2.92853e+00  1.60697e-01  5.27557e-01
       H -2.90362e+00  1.57837e+00  1.13232e+00
       H -3.47946e+00  1.34333e+00 -4.82527e-01
4
# CELL(abcABC): 1000.00000  1000.00000  1000.00000    90.00000    90.00000    90.00000  Step:          49  Bead:       0 positions{angstrom}  cell{angstrom}
       O -3.15244e+00  1.07209e+00  3.46026e-01
       H -2.93559e+00  1.51544e-01  5.31948e-01
       H -2.90171e+00  1.56676e+00  1.13765e+00
       H -3.50865e+00  1.33441e+00 -4.76533e-01
4
# CELL(abcABC): 1000.00000  1000.00000  1000.00000    90.00000    90.00000    90.00000  Step:          50  Bead:       0 positions{angstrom}  cell{angstrom}
       O -3.15004e+00  1.07391e+00  3.45297e-01
       H -2.94324e+00  1.45226e-01  5.35570e-01
       H -2.90213e+00  1.55297e+00  1.14085e+00
       H -3.53866e+00  1.32562e+00 -4.71786e-01
4
# CELL(abcABC): 1000.00000  1000.00000  1000.00000    90.00000    90.00000    90.00000  Step:          51  Bead:       0 positions{angstrom}  cell{angstrom}
       O -3.14761e+00  1.07550e+00  3.44738e-01
       H -2.95158e+00  1.41996e-01  5.37935e-01
       H -2.90326e+00  1.53869e+00  1.14215e+00
       H -3.56783e+00  1.31782e+00 -4.66588e-01
4
# CELL(abcABC): 1000.00000  1000.00000  1000.00000    90.00000    90.00000    90.00000  Step:          52  Bead:       0 positions{angstrom}  cell{angstrom}
       O -3.14514e+00  1.07690e+00  3.44422e-01
       H -2.96063e+00  1.42401e-01  5.39253e-01
       H -2.90473e+00  1.52383e+00  1.14124e+00
       H -3.59645e+00  1.31013e+00 -4.61979e-01
4
# CELL(abcABC): 1000.00000  1000.00000  1000.00000    90.00000    90.00000    90.00000  Step:          53  Bead:       0 positions{angstrom}  cell{angstrom}
       O -3.14273e+00  1.07792e+00  3.44151e-01
       H -2.96929e+00  1.47077e-01  5.38469e-01
       H -2.90621e+00  1.51130e+00  1.14090e+00
       H -3.62460e+00  1.30179e+00 -4.56549e-01
4
# CELL(abcABC): 1000.00000  1000.00000  1000.00000    90.00000    90.00000    90.00000  Step:          54  Bead:       0 positions{angstrom}  cell{angstrom}
       O -3.14038e+00  1.07867e+00  3.43633e-01
       H -2.97797e+00  1.53947e-01  5.37616e-01
       H -2.90742e+00  1.50117e+00  1.14218e+00
       H -3.65196e+00  1.29309e+00 -4.48759e-01
4
# CELL(abcABC): 1000.00000  1000.00000  1000.00000    90.00000    90.00000    90.00000  Step:          55  Bead:       0 positions{angstrom}  cell{angstrom}
       O -3.13822e+00  1.07912e+00  3.43052e-01
       H -2.98686e+00  1.63053e-01  5.36498e-01
       H -2.90758e+00  1.49334e+00  1.14554e+00
       H -3.67725e+00  1.28463e+00 -4.41764e-01
4
# CELL(abcABC): 1000.00000  1000.00000  1000.00000    90.00000    90.00000    90.00000  Step:          56  Bead:       0 positions{angstrom}  cell{angstrom}
       O -3.13631e+00  1.07929e+00  3.42421e-01
       H -2.99286e+00  1.73130e-01  5.35132e-01
       H -2.90684e+00  1.48767e+00  1.14929e+00
       H -3.70229e+00  1.27751e+00 -4.34139e-01
4
# CELL(abcABC): 1000.00000  1000.00000  1000.00000    90.00000    90.00000    90.00000  Step:          57  Bead:       0 positions{angstrom}  cell{angstrom}
       O -3.13463e+00  1.07927e+00  3.41693e-01
       H -2.99614e+00  1.82903e-01  5.33676e-01
       H -2.90600e+00  1.48399e+00  1.15536e+00
       H -3.72662e+00  1.27173e+00 -4.27199e-01
4
# CELL(abcABC): 1000.00000  1000.00000  1000.00000    90.00000    90.00000    90.00000  Step:          58  Bead:       0 positions{angstrom}  cell{angstrom}
       O -3.13328e+00  1.07926e+00  3.40950e-01
       H -2.99675e+00  1.89415e-01  5.31695e-01
       H -2.90366e+00  1.48253e+00  1.16283e+00
       H -3.74967e+00  1.26683e+00 -4.20889e-01
4
# CELL(abcABC): 1000.00000  1000.00000  1000.00000    90.00000    90.00000    90.00000  Step:          59  Bead:       0 positions{angstrom}  cell{angstrom}
       O -3.13229e+00  1.07927e+00  3.40129e-01
       H -2.99454e+00  1.92397e-01  5.29621e-01
       H -2.89995e+00  1.48339e+00  1.17181e+00
       H -3.77133e+00  1.26289e+00 -4.14756e-01
4
# CELL(abcABC): 1000.00000  1000.00000  1000.00000    90.00000    90.00000    90.00000  Step:          60  Bead:       0 positions{angstrom}  cell{angstrom}
       O -3.13165e+00  1.07946e+00  3.39473e-01
       H -2.99126e+00  1.90885e-01  5.27506e-01
       H -2.89455e+00  1.48484e+00  1.17796e+00
       H -3.79021e+00  1.25997e+00 -4.08386e-01
4
# CELL(abcABC): 1000.00000  1000.00000  1000.00000    90.00000    90.00000    90.00000  Step:          61  Bead:       0 positions{angstrom}  cell{angstrom}
       O -3.13142e+00  1.07983e+00  3.39033e-01
       H -2.98493e+00  1.85066e-01  5.24941e-01
       H -2.88713e+00  1.48675e+00  1.18069e+00
       H -3.80761e+00  1.25791e+00 -4.01562e-01
4
# CELL(abcABC): 1000.00000  1000.00000  1000.00000    90.00000    90.00000    90.00000  Step:          62  Bead:       0 positions{angstrom}  cell{angstrom}
       O -3.13142e+00  1.08039e+00  3.38966e-01
       H -2.97735e+00  1.75783e-01  5.21532e-01
       H -2.88024e+00  1.48847e+00  1.18018e+00
       H -3.82206e+00  1.25658e+00 -3.96594e-01
4
# CELL(abcABC): 1000.00000  1000.00000  1000.00000    90.00000    90.00000    90.00000  Step:          63  Bead:       0 positions{angstrom}  cell{angstrom}
       O -3.13165e+00  1.08086e+00  3.39016e-01
       H -2.96766e+00  1.66536e-01  5.17949e-01
       H -2.87313e+00  1.48950e+00  1.17659e+00
       H -3.83523e+00  1.25749e+00 -3.90217e-01
4
# CELL(abcABC): 1000.00000  1000.00000  1000.00000    90.00000    90.00000    90.00000  Step:          64  Bead:       0 positions{angstrom}  cell{angstrom}
       O -3.13217e+00  1.08121e+00  3.39300e-01
       H -2.95523e+00  1.58296e-01  5.14488e-01
       H -2.86519e+00  1.49029e+00  1.17026e+00
       H -3.84734e+00  1.25925e+00 -3.84923e-01
4
# CELL(abcABC): 1000.00000  1000.00000  1000.00000    90.00000    90.00000    90.00000  Step:          65  Bead:       0 positions{angstrom}  cell{angstrom}
       O -3.13293e+00  1.08131e+00  3.39862e-01
       H -2.94240e+00  1.52890e-01  5.08892e-01
       H -2.85605e+00  1.49243e+00  1.16141e+00
       H -3.85725e+00  1.26096e+00 -3.79405e-01
4
# CELL(abcABC): 1000.00000  1000.00000  1000.00000    90.00000    90.00000    90.00000  Step:          66  Bead:       0 positions{angstrom}  cell{angstrom}
       O -3.13392e+00  1.08103e+00  3.40553e-01
       H -2.92880e+00  1.53312e-01  5.02880e-01
       H -2.84614e+00  1.49340e+00  1.15107e+00
       H -3.86499e+00  1.26402e+00 -3.74012e-01
4
# CELL(abcABC): 1000.00000  1000.00000  1000.00000    90.00000    90.00000    90.00000  Step:          67  Bead:       0 positions{angstrom}  cell{angstrom}
       O -3.13505e+00  1.08052e+00  3.41405e-01
       H -2.91427e+00  1.56425e-01  4.94998e-01
       H -2.83493e+00  1.49510e+00  1.14018e+00
       H -3.87280e+00  1.26740e+00 -3.68769e-01
4
# CELL(abcABC): 1000.00000  1000.00000  1000.00000    90.00000    90.00000    90.00000  Step:          68  Bead:       0 positions{angstrom}  cell{angstrom}
       O -3.13640e+00  1.07964e+00  3.42517e-01
       H -2.89857e+00  1.62648e-01  4.85857e-01
       H -2.82244e+00  1.49781e+00  1.12728e+00
       H -3.87952e+00  1.27234e+00 -3.64373e-01
4
# CELL(abcABC): 1000.00000  1000.00000  1000.00000    90.00000    90.00000    90.00000  Step:          69  Bead:       0 positions{angstrom}  cell{angstrom}
       O -3.13788e+00  1.07859e+00  3.43501e-01
       H -2.88273e+00  1.70067e-01  4.77548e-01
       H -2.80950e+00  1.50191e+00  1.11560e+00
       H -3.88482e+00  1.27753e+00 -3.59999e-01
4
# CELL(abcABC): 1000.00000  1000.00000  1000.00000    90.00000    90.00000    90.00000  Step:          70  Bead:       0 positions{angstrom}  cell{angstrom}
       O -3.13970e+00  1.07715e+00  3.44499e-01
       H -2.86596e+00  1.79969e-01  4.67679e-01
       H -2.79513e+00  1.50828e+00  1.10437e+00
       H -3.88706e+00  1.28407e+00 -3.54752e-01
4
# CELL(abcABC): 1000.00000  1000.00000  1000.00000    90.00000    90.00000    90.00000  Step:          71  Bead:       0 positions{angstrom}  cell{angstrom}
       O -3.14166e+00  1.07561e+00  3.45552e-01
       H -2.84923e+00  1.89510e-01  4.55987e-01
       H -2.78004e+00  1.51565e+00  1.09354e+00
       H -3.88786e+00  1.29156e+00 -3.48952e-01
4
# CELL(abcABC): 1000.00000  1000.00000  1000.00000    90.00000    90.00000    90.00000  Step:          72  Bead:       0 positions{angstrom}  cell{angstrom}
       O -3.14383e+00  1.07388e+00  3.46531e-01
       H -2.83132e+00  1.98963e-01  4.44337e-01
       H -2.76377e+00  1.52457e+00  1.08421e+00
       H -3.88762e+00  1.30072e+00 -3.43517e-01
4
# CELL(abcABC): 1000.00000  1000.00000  1000.00000    90.00000    90.00000    90.00000  Step:          73  Bead:       0 positions{angstrom}  cell{angstrom}
       O -3.14610e+00  1.07217e+00  3.47568e-01
       H -2.81257e+00  2.06939e-01  4.32465e-01
       H -2.74693e+00  1.53486e+00  1.07525e+00
       H -3.88704e+00  1.30963e+00 -3.39130e-01
4
# CELL(abcABC): 1000.00000  1000.00000  1000.00000    90.00000    90.00000    90.00000  Step:          74  Bead:       0 positions{angstrom}  cell{angstrom}
       O -3.14853e+00  1.07046e+00  3.48777e-01
       H -2.79244e+00  2.13068e-01  4.19341e-01
       H -2.73006e+00  1.54565e+00  1.06487e+00
       H -3.88557e+00  1.31975e+00 -3.34823e-01
4
# CELL(abcABC): 1000.00000  1000.00000  1000.00000    90.00000    90.00000    90.00000  Step:          75  Bead:       0 positions{angstrom}  cell{angstrom}
       O -3.15086e+00  1.06891e+00  3.50024e-01
       H -2.77183e+00  2.16141e-01  4.05797e-01
       H -2.71428e+00  1.55577e+00  1.05453e+00
       H -3.88503e+00  1.33115e+00 -3.30732e-01
4
# CELL(abcABC): 1000.00000  1000.00000  1000.00000    90.00000    90.00000    90.00000  Step:          76  Bead:       0 positions{angstrom}  cell{angstrom}
       O -3.15326e+00  1.06737e+00  3.51200e-01
       H -2.74972e+00  2.17833e-01  3.93537e-01
       H -2.69970e+00  1.56537e+00  1.04317e+00
       H -3.88361e+00  1.34445e+00 -3.25774e-01
4
# CELL(abcABC): 1000.00000  1000.00000  1000.00000    90.00000    90.00000    90.00000  Step:          77  Bead:       0 positions{angstrom}  cell{angstrom}
       O -3.15549e+00  1.06589e+00  3.52399e-01
       H -2.72757e+00  2.19604e-01  3.81541e-01
       H -2.68711e+00  1.57426e+00  1.03103e+00
       H -3.88295e+00  1.35716e+00 -3.20682e-01
4
# CELL(abcABC): 1000.00000  1000.00000  1000.00000    90.00000    90.00000    90.00000  Step:          78  Bead:       0 positions{angstrom}  cell{angstrom}
       O -3.15750e+00  1.06452e+00  3.53822e-01
       H -2.70708e+00  2.20718e-01  3.68923e-01
       H -2.67557e+00  1.58244e+00  1.01714e+00
       H -3.88304e+00  1.36973e+00 -3.16748e-01
4
# CELL(abcABC): 1000.00000  1000.00000  1000.00000    90.00000    90.00000    90.00000  Step:          79  Bead:       0 positions{angstrom}  cell{angstrom}
       O -3.15934e+00  1.06329e+00  3.55256e-01
       H -2.68842e+00  2.23229e-01  3.57978e-01
       H -2.66476e+00  1.58821e+00  1.00160e+00
       H -3.88323e+00  1.38085e+00 -3.13039e-01
4
# CELL(abcABC): 1000.00000  1000.00000  1000.00000    90.00000    90.00000    90.00000  Step:          80  Bead:       0 positions{angstrom}  cell{angstrom}
       O -3.16101e+00  1.06212e+00  3.56601e-01
       H -2.67113e+00  2.27528e-01  3.47535e-01
       H -2.65552e+00  1.59215e+00  9.85933e-01
       H -3.88336e+00  1.39128e+00 -3.08267e-01
4
# CELL(abcABC): 1000.00000  1000.00000  1000.00000    90.00000    90.00000    90.00000  Step:          81  Bead:       0 positions{angstrom}  cell{angstrom}
       O -3.16243e+00  1.06081e+00  3.57991e-01
       H -2.65401e+00  2.34600e-01  3.37041e-01
       H -2.64874e+00  1.59658e+00  9.69647e-01
       H -3.88473e+00  1.40059e+00 -3.03552e-01
4
# CELL(abcABC): 1000.00000  1000.00000  1000.00000    90.00000    90.00000    90.00000  Step:          82  Bead:       0 positions{angstrom}  cell{angstrom}
       O -3.16351e+00  1.05962e+00  3.59229e-01
       H -2.63881e+00  2.43127e-01  3.27957e-01
       H -2.64334e+00  1.59870e+00  9.52946e-01
       H -3.88807e+00  1.40884e+00 -2.97417e-01
4
# CELL(abcABC): 1000.00000  1000.00000  1000.00000    90.00000    90.00000    90.00000  Step:          83  Bead:       0 positions{angstrom}  cell{angstrom}
       O -3.16430e+00  1.05832e+00  3.60365e-01
       H -2.62638e+00  2.54022e-01  3.19986e-01
       H -2.63940e+00  1.60060e+00  9.36494e-01
       H -3.89187e+00  1.41654e+00 -2.91032e-01
4
# CELL(abcABC): 1000.00000  1000.00000  1000.00000    90.00000    90.00000    90.00000  Step:          84  Bead:       0 positions{angstrom}  cell{angstrom}
       O -3.16476e+00  1.05700e+00  3.61388e-01
       H -2.61570e+00  2.65672e-01  3.11680e-01
       H -2.63759e+00  1.60264e+00  9.20775e-01
       H -3.89714e+00  1.42391e+00 -2.83235e-01
4
# CELL(abcABC): 1000.00000  1000.00000  1000.00000    90.00000    90.00000    90.00000  Step:          85  Bead:       0 positions{angstrom}  cell{angstrom}