4
# CELL(abcABC): 1000.00000  1000.00000  1000.00000    90.00000    90.00000    90.00000  Step:         735  Bead:       0 positions{angstrom}  cell{angstrom}
       O -3.12525e+00  1.05733e+00  3.65726e-01
       H -3.69164e+00  7.31229e-01  1.03395e+00
       H -3.05492e+00  5.89650e-01 -5.10812e-01
       H -3.03114e+00  1.96652e+00  3.57231e-01
