4
# CELL(abcABC): 1000.00000  1000.00000  1000.00000    90.00000    90.00000    90.00000  Step:           0  Bead:       0 positions{angstrom}  cell{angstrom}
       O -3.12525e+00  1.05733e+00  3.65726e-01
       H -3.69164e+00  7.31229e-01  1.03395e+00
       H -3.05492e+00  5.89650e-01 -5.10812e-01
       H -3.03114e+00  1.96652e+00  3.57231e-01
4
# CELL(abcABC): 1000.00000  1000.00000  1000.00000    90.00000    90.00000    90.00000  Step:           1  Bead:       0 positions{angstrom}  cell{angstrom}
       O -3.12348e+00  1.05739e+00  3.65030e-01
       H -3.70284e+00  7.23146e-01  1.03922e+00
       H -3.05511e+00  5.89813e-01 -5.08119e-01
       H -3.04790e+00  1.97347e+00  3.60316e-01
4
# CELL(abcABC): 1000.00000  1000.00000  1000.00000    90.00000    90.00000    90.00000  Step:           2  Bead:       0 positions{angstrom}  cell{angstrom}
       O -3.12167e+00  1.05700e+00  3.64155e-01
       H -3.71590e+00  7.14235e-01  1.04548e+00
       H -3.05442e+00  5.91594e-01 -5.02681e-01
       H -3.06414e+00  1.98688e+00  3.62511e-01
4
# CELL(abcABC): 1000.00000  1000.00000  1000.00000    90.00000    90.00000    90.00000  Step:           3  Bead:       0 positions{angstrom}  cell{angstrom}
       O -3.11978e+00  1.05630e+00  3.63185e-01
       H -3.72876e+00  7.03862e-01  1.05244e+00
       H -3.05471e+00  5.95925e-01 -4.94494e-01
       H -3.08101e+00  2.00396e+00  3.62760e-01
4
# CELL(abcABC): 1000.00000  1000.00000  1000.00000    90.00000    90.00000    90.00000  Step:           4  Bead:       0 positions{angstrom}  cell{angstrom}
       O -3.11794e+00  1.05547e+00  3.62446e-01
       H -3.74086e+00  6.92695e-01  1.05580e+00
       H -3.05505e+00  6.01961e-01 -4.85673e-01
       H -3.09788e+00  2.02223e+00  3.62305e-01
4
# CELL(abcABC): 1000.00000  1000.00000  1000.00000    90.00000    90.00000    90.00000  Step:           5  Bead:       0 positions{angstrom}  cell{angstrom}
       O -3.11607e+00  1.05451e+00  3.62054e-01
       H -3.75180e+00  6.82472e-01  1.05534e+00
       H -3.05670e+00  6.09655e-01 -4.76013e-01
       H -3.11498e+00  2.03997e+00  3.59328e-01
4
# CELL(abcABC): 1000.00000  1000.00000  1000.00000    90.00000    90.00000    90.00000  Step:           6  Bead:       0 positions{angstrom}  cell{angstrom}
       O -3.11420e+00  1.05378e+00  3.62146e-01
       H -3.76003e+00  6.73814e-01  1.04973e+00
       H -3.05959e+00  6.15509e-01 -4.69034e-01
       H -3.13340e+00  2.05447e+00  3.56502e-01
4
# CELL(abcABC): 1000.00000  1000.00000  1000.00000    90.00000    90.00000    90.00000  Step:           7  Bead:       0 positions{angstrom}  cell{angstrom}
       O -3.11254e+00  1.05321e+00  3.62581e-01
       H -3.76385e+00  6.66667e-01  1.04098e+00
       H -3.06321e+00  6.20123e-01 -4.64137e-01
       H -3.15244e+00  2.06601e+00  3.53444e-01
4
# CELL(abcABC): 1000.00000  1000.00000  1000.00000    90.00000    90.00000    90.00000  Step:           8  Bead:       0 positions{angstrom}  cell{angstrom}
       O -3.11111e+00  1.05302e+00  3.63644e-01
       H -3.76364e+00  6.61075e-01  1.02730e+00
       H -3.06634e+00  6.22424e-01 -4.63626e-01
       H -3.17210e+00  2.07236e+00  3.49735e-01
4
# CELL(abcABC): 1000.00000  1000.00000  1000.00000    90.00000    90.00000    90.00000  Step:           9  Bead:       0 positions{angstrom}  cell{angstrom}
       O -3.10989e+00  1.05332e+00  3.65114e-01
       H -3.76063e+00  6.56011e-01  1.01105e+00
       H -3.06887e+00  6.23345e-01 -4.66370e-01
       H -3.19207e+00  2.07166e+00  3.45411e-01
4
# CELL(abcABC): 1000.00000  1000.00000  1000.00000    90.00000    90.00000    90.00000  Step:          10  Bead:       0 positions{angstrom}  cell{angstrom}
       O -3.10879e+00  1.05397e+00  3.67147e-01
       H -3.75524e+00  6.51978e-01  9.91155e-01
       H -3.07159e+00  6.23597e-01 -4.73234e-01
       H -3.21218e+00  2.06515e+00  3.39890e-01
4
# CELL(abcABC): 1000.00000  1000.00000  1000.00000    90.00000    90.00000    90.00000  Step:          11  Bead:       0 positions{angstrom}  cell{angstrom}
       O -3.10776e+00  1.05501e+00  3.69616e-01
       H -3.74824e+00  6.49214e-01  9.68243e-01
       H -3.07592e+00  6.22704e-01 -4.82858e-01
       H -3.23120e+00  2.05236e+00  3.33231e-01
4
# CELL(abcABC): 1000.00000  1000.00000  1000.00000    90.00000    90.00000    90.00000  Step:          12  Bead:       0 positions{angstrom}  cell{angstrom}
       O -3.10686e+00  1.05641e+00  3.72263e-01
       H -3.73986e+00  6.46111e-01  9.44819e-01
       H -3.08062e+00  6.20404e-01 -4.94440e-01
       H -3.24911e+00  2.03542e+00  3.26219e-01
4
# CELL(abcABC): 1000.00000  1000.00000  1000.00000    90.00000    90.00000    90.00000  Step:          13  Bead:       0 positions{angstrom}  cell{angstrom}
       O -3.10594e+00  1.05806e+00  3.74780e-01
       H -3.73296e+00  6.42524e-01  9.23218e-01
       H -3.08422e+00  6.18543e-01 -5.05404e-01
       H -3.26708e+00  2.01470e+00  3.18843e-01
4
# CELL(abcABC): 1000.00000  1000.00000  1000.00000    90.00000    90.00000    90.00000  Step:          14  Bead:       0 positions{angstrom}  cell{angstrom}
       O -3.10488e+00  1.05980e+00  3.76954e-01
       H -3.72783e+00  6.36650e-01  9.05280e-01
       H -3.08739e+00  6.18527e-01 -5.14433e-01
       H -3.28580e+00  1.99300e+00  3.11292e-01
4
# CELL(abcABC): 1000.00000  1000.00000  1000.00000    90.00000    90.00000    90.00000  Step:          15  Bead:       0 positions{angstrom}  cell{angstrom}
       O -3.10347e+00  1.06140e+00  3.78466e-01
       H -3.72904e+00  6.27513e-01  8.93990e-01
       H -3.09112e+00  6.20755e-01 -5.20327e-01
       H -3.30322e+00  1.97457e+00  3.04478e-01
4
# CELL(abcABC): 1000.00000  1000.00000  1000.00000    90.00000    90.00000    90.00000  Step:          16  Bead:       0 positions{angstrom}  cell{angstrom}
       O -3.10179e+00  1.06273e+00  3.79484e-01
       H -3.73368e+00  6.15254e-01  8.87042e-01
       H -3.09487e+00  6.26053e-01 -5.22690e-01
       H -3.32151e+00  1.96036e+00  2.97638e-01
4
# CELL(abcABC): 1000.00000  1000.00000  1000.00000    90.00000    90.00000    90.00000  Step:          17  Bead:       0 positions{angstrom}  cell{angstrom}
       O -3.09973e+00  1.06373e+00  3.80027e-01
       H -3.74139e+00  6.01229e-01  8.84494e-01
       H -3.09939e+00  6.34045e-01 -5.22483e-01
       H -3.34208e+00  1.95050e+00  2.91347e-01
4
# CELL(abcABC): 1000.00000  1000.00000  1000.00000    90.00000    90.00000    90.00000  Step:          18  Bead:       0 positions{angstrom}  cell{angstrom}
       O -3.09739e+00  1.06422e+00  3.80177e-01
       H -3.75258e+00  5.86739e-01  8.85308e-01
       H -3.10246e+00  6.43858e-01 -5.19126e-01
       H -3.36486e+00  1.94736e+00  2.84804e-01
4
# CELL(abcABC): 1000.00000  1000.00000  1000.00000    90.00000    90.00000    90.00000  Step:          19  Bead:       0 positions{angstrom}  cell{angstrom}
       O -3.09503e+00  1.06434e+00  3.80031e-01
       H -3.76413e+00  5.71992e-01  8.88477e-01
       H -3.10584e+00  6.54478e-01 -5.13882e-01
       H -3.38735e+00  1.94969e+00  2.78705e-01
4
# CELL(abcABC): 1000.00000  1000.00000  1000.00000    90.00000    90.00000    90.00000  Step:          20  Bead:       0 positions{angstrom}  cell{angstrom}
       O -3.09269e+00  1.06413e+00  3.79790e-01
       H -3.77471e+00  5.58700e-01  8.90882e-01
       H -3.10961e+00  6.65990e-01 -5.06782e-01
       H -3.41015e+00  1.95471e+00  2.73020e-01
4
# CELL(abcABC): 1000.00000  1000.00000  1000.00000    90.00000    90.00000    90.00000  Step:          21  Bead:       0 positions{angstrom}  cell{angstrom}
       O -3.09059e+00  1.06367e+00  3.79598e-01
       H -3.78350e+00  5.46799e-01  8.91727e-01
       H -3.11111e+00  6.78153e-01 -4.98353e-01
       H -3.43331e+00  1.96176e+00  2.66798e-01
4
# CELL(abcABC): 1000.00000  1000.00000  1000.00000    90.00000    90.00000    90.00000  Step:          22  Bead:       0 positions{angstrom}  cell{angstrom}
       O -3.08883e+00  1.06301e+00  3.79607e-01
       H -3.79025e+00  5.36558e-01  8.92397e-01
       H -3.10961e+00  6.89858e-01 -4.92664e-01
       H -3.45593e+00  1.97075e+00  2.60304e-01
4
# CELL(abcABC): 1000.00000  1000.00000  1000.00000    90.00000    90.00000    90.00000  Step:          23  Bead:       0 positions{angstrom}  cell{angstrom}
       O -3.08751e+00  1.06236e+00  3.80008e-01
       H -3.79298e+00  5.29856e-01  8.90836e-01
       H -3.10617e+00  7.00654e-01 -4.89001e-01
       H -3.47765e+00  1.97709e+00  2.51831e-01
4
# CELL(abcABC): 1000.00000  1000.00000  1000.00000    90.00000    90.00000    90.00000  Step:          24  Bead:       0 positions{angstrom}  cell{angstrom}
       O -3.08668e+00  1.06173e+00  3.80682e-01
       H -3.79098e+00  5.25344e-01  8.87274e-01
       H -3.10114e+00  7.10530e-01 -4.88489e-01
       H -3.49778e+00  1.98174e+00  2.44181e-01
4
# CELL(abcABC): 1000.00000  1000.00000  1000.00000    90.00000    90.00000    90.00000  Step:          25  Bead:       0 positions{angstrom}  cell{angstrom}
       O -3.08633e+00  1.06140e+00  3.81541e-01
       H -3.78494e+00  5.22949e-01  8.82607e-01
       H -3.09515e+00  7.17392e-01 -4.91701e-01
       H -3.51547e+00  1.98248e+00  2.38430e-01
4
# CELL(abcABC): 1000.00000  1000.00000  1000.00000    90.00000    90.00000    90.00000  Step:          26  Bead:       0 positions{angstrom}  cell{angstrom}
       O -3.08647e+00  1.06143e+00  3.82605e-01
       H -3.77517e+00  5.22704e-01  8.75552e-01
       H -3.08749e+00  7.21516e-01 -4.98819e-01
       H -3.53065e+00  1.97809e+00  2.35716e-01
4
# CELL(abcABC): 1000.00000  1000.00000  1000.00000    90.00000    90.00000    90.00000  Step:          27  Bead:       0 positions{angstrom}  cell{angstrom}
       O -3.08719e+00  1.06175e+00  3.83830e-01
       H -3.76250e+00  5.25628e-01  8.66614e-01
       H -3.07840e+00  7.22581e-01 -5.09098e-01
       H -3.54090e+00  1.96901e+00  2.35481e-01
4
# CELL(abcABC): 1000.00000  1000.00000  1000.00000    90.00000    90.00000    90.00000  Step:          28  Bead:       0 positions{angstrom}  cell{angstrom}
       O -3.08828e+00  1.06238e+00  3.84991e-01
       H -3.74887e+00  5.28316e-01  8.57059e-01
       H -3.06732e+00  7.22031e-01 -5.20537e-01
       H -3.54839e+00  1.95687e+00  2.38042e-01
4
# CELL(abcABC): 1000.00000  1000.00000  1000.00000    90.00000    90.00000    90.00000  Step:          29  Bead:       0 positions{angstrom}  cell{angstrom}
       O -3.08971e+00  1.06326e+00  3.86021e-01
       H -3.73376e+00  5.31499e-01  8.46485e-01
       H -3.05587e+00  7.20280e-01 -5.31869e-01
       H -3.55220e+00  1.94154e+00  2.43601e-01
4
# CELL(abcABC): 1000.00000  1000.00000  1000.00000    90.00000    90.00000    90.00000  Step:          30  Bead:       0 positions{angstrom}  cell{angstrom}
       O -3.09133e+00  1.06427e+00  3.86723e-01
       H -3.71899e+00  5.34478e-01  8.38166e-01
       H -3.04352e+00  7.17945e-01 -5.41249e-01
       H -3.55355e+00  1.92474e+00  2.50160e-01
4
# CELL(abcABC): 1000.00000  1000.00000  1000.00000    90.00000    90.00000    90.00000  Step:          31  Bead:       0 positions{angstrom}  cell{angstrom}
       O -3.09313e+00  1.06538e+00  3.87070e-01
       H -3.70489e+00  5.34965e-01  8.32652e-01
       H -3.02961e+00  7.16722e-01 -5.48594e-01
       H -3.55300e+00  1.90796e+00  2.57508e-01
4
# CELL(abcABC): 1000.00000  1000.00000  1000.00000    90.00000    90.00000    90.00000  Step:          32  Bead:       0 positions{angstrom}  cell{angstrom}
       O -3.09480e+00  1.06671e+00  3.86736e-01
       H -3.69524e+00  5.29607e-01  8.31312e-01
       H -3.01444e+00  7.17185e-01 -5.51226e-01
       H -3.55141e+00  1.89164e+00  2.66778e-01
4
# CELL(abcABC): 1000.00000  1000.00000  1000.00000    90.00000    90.00000    90.00000  Step:          33  Bead:       0 positions{angstrom}  cell{angstrom}
       O -3.09623e+00  1.06822e+00  3.85782e-01
       H -3.69004e+00  5.19024e-01  8.35015e-01
       H -2.99842e+00  7.17328e-01 -5.49532e-01
       H -3.54989e+00  1.87826e+00  2.76522e-01
4
# CELL(abcABC): 1000.00000  1000.00000  1000.00000    90.00000    90.00000    90.00000  Step:          34  Bead:       0 positions{angstrom}  cell{angstrom}
       O -3.09727e+00  1.06964e+00  3.84479e-01
       H -3.68769e+00  5.04098e-01  8.41836e-01
       H -2.98394e+00  7.17762e-01 -5.43713e-01
       H -3.55028e+00  1.87011e+00  2.84576e-01
4
# CELL(abcABC): 1000.00000  1000.00000  1000.00000    90.00000    90.00000    90.00000  Step:          35  Bead:       0 positions{angstrom}  cell{angstrom}
       O -3.09809e+00  1.07079e+00  3.82846e-01
       H -3.68572e+00  4.86000e-01  8.50154e-01
       H -2.97057e+00  7.19902e-01 -5.33876e-01
       H -3.55258e+00  1.86789e+00  2.92340e-01
4
# CELL(abcABC): 1000.00000  1000.00000  1000.00000    90.00000    90.00000    90.00000  Step:          36  Bead:       0 positions{angstrom}  cell{angstrom}
       O -3.09875e+00  1.07151e+00  3.81046e-01
       H -3.68423e+00  4.66191e-01  8.58987e-01
       H -2.95701e+00  7.23954e-01 -5.22456e-01
       H -3.55705e+00  1.87222e+00  3.00654e-01
4
# CELL(abcABC): 1000.00000  1000.00000  1000.00000    90.00000    90.00000    90.00000  Step:          37  Bead:       0 positions{angstrom}  cell{angstrom}
       O -3.09939e+00  1.07192e+00  3.79102e-01
       H -3.68156e+00  4.46923e-01  8.69403e-01
       H -2.94287e+00  7.27740e-01 -5.10325e-01
       H -3.56370e+00  1.88117e+00  3.08965e-01
4
# CELL(abcABC): 1000.00000  1000.00000  1000.00000    90.00000    90.00000    90.00000  Step:          38  Bead:       0 positions{angstrom}  cell{angstrom}
       O -3.09991e+00  1.07200e+00  3.77437e-01
       H -3.67824e+00  4.28488e-01  8.77382e-01
       H -2.92842e+00  7.30378e-01 -4.98635e-01
       H -3.57322e+00  1.89569e+00  3.15730e-01
4
# CELL(abcABC): 1000.00000  1000.00000  1000.00000    90.00000    90.00000    90.00000  Step:          39  Bead:       0 positions{angstrom}  cell{angstrom}
       O -3.10077e+00  1.07197e+00  3.75910e-01
       H -3.67176e+00  4.11611e-01  8.83785e-01
       H -2.91312e+00  7.31431e-01 -4.87497e-01
       H -3.58146e+00  1.91196e+00  3.22424e-01
4
# CELL(abcABC): 1000.00000  1000.00000  1000.00000    90.00000    90.00000    90.00000  Step:          40  Bead:       0 positions{angstrom}  cell{angstrom}
       O -3.10194e+00  1.07177e+00  3.74541e-01
       H -3.66236e+00  3.97854e-01  8.88510e-01
       H -2.89687e+00  7.31898e-01 -4.77299e-01
       H -3.58846e+00  1.92850e+00  3.29232e-01
4
# CELL(abcABC): 1000.00000  1000.00000  1000.00000    90.00000    90.00000    90.00000  Step:          41  Bead:       0 positions{angstrom}  cell{angstrom}
       O -3.10347e+00  1.07150e+00  3.73534e-01
       H -3.65022e+00  3.88328e-01  8.89868e-01
       H -2.87910e+00  7.31787e-01 -4.70260e-01
       H -3.59407e+00  1.94240e+00  3.36814e-01
4
# CELL(abcABC): 1000.00000  1000.00000  1000.00000    90.00000    90.00000    90.00000  Step:          42  Bead:       0 positions{angstrom}  cell{angstrom}
       O -3.10551e+00  1.07140e+00  3.73020e-01
       H -3.63370e+00  3.80579e-01  8.87942e-01
       H -2.86006e+00  7.30751e-01 -4.66679e-01
       H -3.59727e+00  1.95266e+00  3.43319e-01
4
# CELL(abcABC): 1000.00000  1000.00000  1000.00000    90.00000    90.00000    90.00000  Step:          43  Bead:       0 positions{angstrom}  cell{angstrom}
       O -3.10792e+00  1.07135e+00  3.72931e-01
       H -3.61494e+00  3.77103e-01  8.82962e-01
       H -2.83992e+00  7.30333e-01 -4.66380e-01
       H -3.59789e+00  1.95748e+00  3.49427e-01
4
# CELL(abcABC): 1000.00000  1000.00000  1000.00000    90.00000    90.00000    90.00000  Step:          44  Bead:       0 positions{angstrom}  cell{angstrom}
       O -3.11064e+00  1.07145e+00  3.73170e-01
       H -3.59413e+00  3.75827e-01  8.75218e-01
       H -2.81894e+00  7.29232e-01 -4.69243e-01
       H -3.59654e+00  1.95814e+00  3.56227e-01
4
# CELL(abcABC): 1000.00000  1000.00000  1000.00000    90.00000    90.00000    90.00000  Step:          45  Bead:       0 positions{angstrom}  cell{angstrom}
       O -3.11350e+00  1.07174e+00  3.73672e-01
       H -3.57295e+00  3.76617e-01  8.65509e-01
       H -2.79693e+00  7.27855e-01 -4.74335e-01
       H -3.59441e+00  1.95423e+00  3.63059e-01
4
# CELL(abcABC): 1000.00000  1000.00000  1000.00000    90.00000    90.00000    90.00000  Step:          46  Bead:       0 positions{angstrom}  cell{angstrom}
       O -3.11650e+00  1.07220e+00  3.74252e-01
       H -3.55197e+00  3.78667e-01  8.55149e-01
       H -2.77526e+00  7.26688e-01 -4.79829e-01
       H -3.58940e+00  1.94599e+00  3.69715e-01
4
# CELL(abcABC): 1000.00000  1000.00000  1000.00000    90.00000    90.00000    90.00000  Step:          47  Bead:       0 positions{angstrom}  cell{angstrom}
       O -3.11943e+00  1.07270e+00  3.74836e-01
       H -3.53223e+00  3.79514e-01  8.46092e-01
       H -2.75426e+00  7.27465e-01 -4.84731e-01
       H -3.58360e+00  1.93638e+00  3.74409e-01
4
# CELL(abcABC): 1000.00000  1000.00000  1000.00000    90.00000    90.00000    90.00000  Step:          48  Bead:       0 positions{angstrom}  cell{angstrom}
       O -3.12215e+00  1.07343e+00  3.75139e-01
       H -3.51430e+00  3.76820e-01  8.39592e-01
       H -2.73467e+00  7.31094e-01 -4.87771e-01
       H -3.57800e+00  1.92393e+00  3.79135e-01
4
# CELL(abcABC): 1000.00000  1000.00000  1000.00000    90.00000    90.00000    90.00000  Step:          49  Bead:       0 positions{angstrom}  cell{angstrom}
       O -3.12457e+00  1.07423e+00  3.74951e-01
       H -3.49927e+00  3.70010e-01  8.36772e-01
       H -2.71576e+00  7.37064e-01 -4.87310e-01
       H -3.57340e+00  1.91200e+00  3.84476e-01
4
# CELL(abcABC): 1000.00000  1000.00000  1000.00000    90.00000    90.00000    90.00000  Step:          50  Bead:       0 positions{angstrom}  cell{angstrom}
       O -3.12641e+00  1.07509e+00  3.74437e-01
       H -3.48771e+00  3.59346e-01  8.37032e-01
       H -2.70080e+00  7.45133e-01 -4.82984e-01
       H -3.57084e+00  1.90107e+00  3.88047e-01
4
# CELL(abcABC): 1000.00000  1000.00000  1000.00000    90.00000    90.00000    90.00000  Step:          51  Bead:       0 positions{angstrom}  cell{angstrom}
       O -3.12777e+00  1.07578e+00  3.73529e-01
       H -3.47942e+00  3.44823e-01  8.39909e-01
       H -2.68858e+00  7.56356e-01 -4.75077e-01
       H -3.56976e+00  1.89341e+00  3.91669e-01
4
# CELL(abcABC): 1000.00000  1000.00000  1000.00000    90.00000    90.00000    90.00000  Step:          52  Bead:       0 positions{angstrom}  cell{angstrom}
       O -3.12862e+00  1.07627e+00  3.72399e-01
       H -3.47387e+00  3.27895e-01  8.45056e-01
       H -2.67902e+00  7.69712e-01 -4.65040e-01
       H -3.57128e+00  1.88912e+00  3.94423e-01
4
# CELL(abcABC): 1000.00000  1000.00000  1000.00000    90.00000    90.00000    90.00000  Step:          53  Bead:       0 positions{angstrom}  cell{angstrom}
       O -3.12905e+00  1.07634e+00  3.71012e-01
       H -3.46935e+00  3.10970e-01  8.50486e-01
       H -2.67195e+00  7.86908e-01 -4.51848e-01
       H -3.57602e+00  1.88783e+00  3.97819e-01
4
# CELL(abcABC): 1000.00000  1000.00000  1000.00000    90.00000    90.00000    90.00000  Step:          54  Bead:       0 positions{angstrom}  cell{angstrom}
       O -3.12911e+00  1.07603e+00  3.69269e-01
       H -3.46581e+00  2.94192e-01  8.57199e-01
       H -2.66691e+00  8.06760e-01 -4.36537e-01
       H -3.58377e+00  1.88955e+00  4.03476e-01
4
# CELL(abcABC): 1000.00000  1000.00000  1000.00000    90.00000    90.00000    90.00000  Step:          55  Bead:       0 positions{angstrom}  cell{angstrom}
       O -3.12898e+00  1.07531e+00  3.67552e-01
       H -3.46307e+00  2.80050e-01  8.63926e-01
       H -2.66251e+00  8.28009e-01 -4.20845e-01
       H -3.59298e+00  1.89401e+00  4.08299e-01
4
# CELL(abcABC): 1000.00000  1000.00000  1000.00000    90.00000    90.00000    90.00000  Step:          56  Bead:       0 positions{angstrom}  cell{angstrom}
       O -3.12885e+00  1.07416e+00  3.66065e-01
       H -3.45778e+00  2.69774e-01  8.69700e-01
       H -2.65790e+00  8.49523e-01 -4.08457e-01
       H -3.60491e+00  1.90096e+00  4.13748e-01
4
# CELL(abcABC): 1000.00000  1000.00000  1000.00000    90.00000    90.00000    90.00000  Step:          57  Bead:       0 positions{angstrom}  cell{angstrom}
       O -3.12881e+00  1.07270e+00  3.64904e-01
       H -3.45012e+00  2.64312e-01  8.73918e-01
       H -2.65285e+00  8.70417e-01 -3.99013e-01
       H -3.61825e+00  1.90877e+00  4.18520e-01
4
# CELL(abcABC): 1000.00000  1000.00000  1000.00000    90.00000    90.00000    90.00000  Step:          58  Bead:       0 positions{angstrom}  cell{angstrom}
       O -3.12908e+00  1.07113e+00  3.64231e-01
       H -3.44032e+00  2.62489e-01  8.75657e-01
       H -2.64492e+00  8.90581e-01 -3.94237e-01
       H -3.63159e+00  1.91532e+00  4.22672e-01
4
# CELL(abcABC): 1000.00000  1000.00000  1000.00000    90.00000    90.00000    90.00000  Step:          59  Bead:       0 positions{angstrom}  cell{angstrom}
       O -3.12976e+00  1.06948e+00  3.63972e-01
       H -3.42846e+00  2.64940e-01  8.75176e-01
       H -2.63360e+00  9.10240e-01 -3.93652e-01
       H -3.64408e+00  1.91929e+00  4.26684e-01
4
# CELL(abcABC): 1000.00000  1000.00000  1000.00000    90.00000    90.00000    90.00000  Step:          60  Bead:       0 positions{angstrom}  cell{angstrom}
       O -3.13085e+00  1.06797e+00  3.64251e-01
       H -3.41663e+00  2.70538e-01  8.72735e-01
       H -2.61841e+00  9.28230e-01 -3.99977e-01
       H -3.65377e+00  1.91975e+00  4.31027e-01
4
# CELL(abcABC): 1000.00000  1000.00000  1000.00000    90.00000    90.00000    90.00000  Step:          61  Bead:       0 positions{angstrom}  cell{angstrom}
       O -3.13237e+00  1.06666e+00  3.64916e-01
       H -3.40318e+00  2.78145e-01  8.68496e-01
       H -2.59974e+00  9.45070e-01 -4.11267e-01
       H -3.66169e+00  1.91601e+00  4.35991e-01
4
# CELL(abcABC): 1000.00000  1000.00000  1000.00000    90.00000    90.00000    90.00000  Step:          62  Bead:       0 positions{angstrom}  cell{angstrom}
       O -3.13405e+00  1.06570e+00  3.65876e-01
       H -3.39018e+00  2.86131e-01  8.63016e-01
       H -2.58149e+00  9.60696e-01 -4.24379e-01
       H -3.66628e+00  1.90778e+00  4.39347e-01
4
# CELL(abcABC): 1000.00000  1000.00000  1000.00000    90.00000    90.00000    90.00000  Step:          63  Bead:       0 positions{angstrom}  cell{angstrom}
       O -3.13576e+00  1.06494e+00  3.66639e-01
       H -3.37701e+00  2.94822e-01  8.58115e-01
       H -2.56436e+00  9.74939e-01 -4.36713e-01
       H -3.66947e+00  1.89691e+00  4.44469e-01
4
# CELL(abcABC): 1000.00000  1000.00000  1000.00000    90.00000    90.00000    90.00000  Step:          64  Bead:       0 positions{angstrom}  cell{angstrom}
       O -3.13744e+00  1.06454e+00  3.67131e-01
       H -3.36328e+00  3.01952e-01  8.55316e-01
       H -2.54903e+00  9.88347e-01 -4.46208e-01
       H -3.67185e+00  1.88262e+00  4.48953e-01
4
# CELL(abcABC): 1000.00000  1000.00000  1000.00000    90.00000    90.00000    90.00000  Step:          65  Bead:       0 positions{angstrom}  cell{angstrom}
       O -3.13894e+00  1.06448e+00  3.67265e-01
       H -3.35138e+00  3.06498e-01  8.53446e-01
       H -2.53617e+00  1.00240e+00 -4.51697e-01
       H -3.67286e+00  1.86500e+00  4.54196e-01
4
# CELL(abcABC): 1000.00000  1000.00000  1000.00000    90.00000    90.00000    90.00000  Step:          66  Bead:       0 positions{angstrom}  cell{angstrom}
       O -3.14015e+00  1.06468e+00  3.66820e-01
       H -3.34089e+00  3.09475e-01  8.54909e-01
       H -2.52694e+00  1.01436e+00 -4.51860e-01
       H -3.67338e+00  1.84689e+00  4.59949e-01
4
# CELL(abcABC): 1000.00000  1000.00000  1000.00000    90.00000    90.00000    90.00000  Step:          67  Bead:       0 positions{angstrom}  cell{angstrom}
       O -3.14090e+00  1.06524e+00  3.65835e-01
       H -3.33151e+00  3.07068e-01  8.58520e-01
       H -2.52122e+00  1.02580e+00 -4.46163e-01
       H -3.67661e+00  1.82894e+00  4.66277e-01
4
# CELL(abcABC): 1000.00000  1000.00000  1000.00000    90.00000    90.00000    90.00000  Step:          68  Bead:       0 positions{angstrom}  cell{angstrom}
       O -3.14123e+00  1.06592e+00  3.64481e-01
       H -3.32267e+00  3.00270e-01  8.64497e-01
       H -2.51912e+00  1.03675e+00 -4.36904e-01
       H -3.68231e+00  1.81404e+00  4.72539e-01
4
# CELL(abcABC): 1000.00000  1000.00000  1000.00000    90.00000    90.00000    90.00000  Step:          69  Bead:       0 positions{angstrom}  cell{angstrom}
       O -3.14104e+00  1.06673e+00  3.62512e-01
       H -3.31500e+00  2.88846e-01  8.74001e-01
       H -2.52127e+00  1.04726e+00 -4.22168e-01
       H -3.69080e+00  1.80203e+00  4.79560e-01
4
# CELL(abcABC): 1000.00000  1000.00000  1000.00000    90.00000    90.00000    90.00000  Step:          70  Bead:       0 positions{angstrom}  cell{angstrom}
       O -3.14062e+00  1.06729e+00  3.60262e-01
       H -3.30720e+00  2.76605e-01  8.83238e-01
       H -2.52596e+00  1.05808e+00 -4.04305e-01
       H -3.70064e+00  1.79469e+00  4.88163e-01
4
# CELL(abcABC): 1000.00000  1000.00000  1000.00000    90.00000    90.00000    90.00000  Step:          71  Bead:       0 positions{angstrom}  cell{angstrom}
       O -3.13987e+00  1.06769e+00  3.57980e-01
       H -3.29991e+00  2.63430e-01  8.90570e-01
       H -2.53258e+00  1.06802e+00 -3.85103e-01
       H -3.71313e+00  1.79156e+00  4.97860e-01
4
# CELL(abcABC): 1000.00000  1000.00000  1000.00000    90.00000    90.00000    90.00000  Step:          72  Bead:       0 positions{angstrom}  cell{angstrom}
       O -3.13907e+00  1.06771e+00  3.55755e-01
       H -3.29171e+00  2.52078e-01  8.96621e-01
       H -2.53888e+00  1.07785e+00 -3.65417e-01
       H -3.72780e+00  1.79263e+00  5.07431e-01
4
# CELL(abcABC): 1000.00000  1000.00000  1000.00000    90.00000    90.00000    90.00000  Step:          73  Bead:       0 positions{angstrom}  cell{angstrom}
       O -3.13834e+00  1.06751e+00  3.53925e-01
       H -3.28282e+00  2.43170e-01  9.00185e-01
       H -2.54317e+00  1.08795e+00 -3.48271e-01
       H -3.74396e+00  1.79473e+00  5.15780e-01
4
# CELL(abcABC): 1000.00000  1000.00000  1000.00000    90.00000    90.00000    90.00000  Step:          74  Bead:       0 positions{angstrom}  cell{angstrom}
       O -3.13796e+00  1.06701e+00  3.52767e-01
       H -3.27266e+00  2.37598e-01  8.99611e-01
       H -2.54366e+00  1.09814e+00 -3.36977e-01
       H -3.75966e+00  1.79804e+00  5.23433e-01
4
# CELL(abcABC): 1000.00000  1000.00000  1000.00000    90.00000    90.00000    90.00000  Step:          75  Bead:       0 positions{angstrom}  cell{angstrom}
       O -3.13788e+00  1.06637e+00  3.52237e-01
       H -3.26199e+00  2.34498e-01  8.95503e-01
       H -2.53984e+00  1.10798e+00 -3.30849e-01
       H -3.77534e+00  1.80143e+00  5.29838e-01
4
# CELL(abcABC): 1000.00000  1000.00000  1000.00000    90.00000    90.00000    90.00000  Step:          76  Bead:       0 positions{angstrom}  cell{angstrom}
       O -3.13842e+00  1.06550e+00  3.52232e-01
       H -3.24958e+00  2.34983e-01  8.89630e-01
       H -2.53105e+00  1.11825e+00 -3.30765e-01
       H -3.78799e+00  1.80447e+00  5.35704e-01
4
# CELL(abcABC): 1000.00000  1000.00000  1000.00000    90.00000    90.00000    90.00000  Step:          77  Bead:       0 positions{angstrom}  cell{angstrom}
       O -3.13939e+00  1.06457e+00  3.52761e-01
       H -3.23648e+00  2.39247e-01  8.81333e-01
       H -2.51844e+00  1.12925e+00 -3.35202e-01
       H -3.79828e+00  1.80392e+00  5.40036e-01
4
# CELL(abcABC): 1000.00000  1000.00000  1000.00000    90.00000    90.00000    90.00000  Step:          78  Bead:       0 positions{angstrom}  cell{angstrom}
       O -3.14074e+00  1.06372e+00  3.53874e-01
       H -3.22401e+00  2.44810e-01  8.70364e-01
       H -2.50221e+00  1.14123e+00 -3.43245e-01
       H -3.80563e+00  1.79986e+00  5.41390e-01
4
# CELL(abcABC): 1000.00000  1000.00000  1000.00000    90.00000    90.00000    90.00000  Step:          79  Bead:       0 positions{angstrom}  cell{angstrom}
       O -3.14243e+00  1.06314e+00  3.55174e-01
       H -3.21195e+00  2.51655e-01  8.59825e-01
       H -2.48380e+00  1.15250e+00 -3.52626e-01
       H -3.80917e+00  1.79099e+00  5.40660e-01
4
# CELL(abcABC): 1000.00000  1000.00000  1000.00000    90.00000    90.00000    90.00000  Step:          80  Bead:       0 positions{angstrom}  cell{angstrom}
       O -3.14436e+00  1.06283e+00  3.56378e-01
       H -3.19951e+00  2.58159e-01  8.49464e-01
       H -2.46597e+00  1.16339e+00 -3.59929e-01
       H -3.80895e+00  1.77851e+00  5.39212e-01
4
# CELL(abcABC): 1000.00000  1000.00000  1000.00000    90.00000    90.00000    90.00000  Step:          81  Bead:       0 positions{angstrom}  cell{angstrom}
       O -3.14631e+00  1.06270e+00  3.57468e-01
       H -3.18521e+00  2.63506e-01  8.39668e-01
       H -2.45122e+00  1.17583e+00 -3.64331e-01
       H -3.80691e+00  1.76283e+00  5.36109e-01
4
# CELL(abcABC): 1000.00000  1000.00000  1000.00000    90.00000    90.00000    90.00000  Step:          82  Bead:       0 positions{angstrom}  cell{angstrom}
       O -3.14809e+00  1.06304e+00  3.58130e-01
       H -3.17061e+00  2.64930e-01  8.32768e-01
       H -2.43974e+00  1.18662e+00 -3.64938e-01
       H -3.80474e+00  1.74524e+00  5.33110e-01
4
# CELL(abcABC): 1000.00000  1000.00000  1000.00000    90.00000    90.00000    90.00000  Step:          83  Bead:       0 positions{angstrom}  cell{angstrom}
       O -3.14959e+00  1.06360e+00  3.58362e-01
       H -3.15645e+00  2.62810e-01  8.28931e-01
       H -2.43263e+00  1.19730e+00 -3.61044e-01
       H -3.80223e+00  1.72770e+00  5.29377e-01
4
# CELL(abcABC): 1000.00000  1000.00000  1000.00000    90.00000    90.00000    90.00000  Step:          84  Bead:       0 positions{angstrom}  cell{angstrom}
       O -3.15063e+00  1.06436e+00  3.58151e-01
       H -3.14175e+00  2.56076e-01  8.26760e-01
       H -2.43123e+00  1.20770e+00 -3.52595e-01
       H -3.80184e+00  1.71204e+00  5.26441e-01
4
# CELL(abcABC): 1000.00000  1000.00000  1000.00000    90.00000    90.00000    90.00000  Step:          85  Bead:       0 positions{angstrom}  cell{angstrom}