4
# CELL(abcABC): 1000.00000  1000.00000  1000.00000    90.00000    90.00000    90.00000  Step:           0  Bead:       0 positions{angstrom}  cell{angstrom}
       O -3.15226e+00  1.06843e+00  3.44444e-01
       H -2.86105e+00  1.34490e-01  3.99088e-01
       H -2.84122e+00  1.47956e+00  1.17017e+00
       H -3.64657e+00  1.49684e+00 -3.51108e-01
4
# CELL(abcABC): 1000.00000  1000.00000  1000.00000    90.00000    90.00000    90.00000  Step:           1  Bead:       0 positions{angstrom}  cell{angstrom}
       O -3.15049e+00  1.06862e+00  3.44036e-01
       H -2.87156e+00  1.29193e-01  4.02824e-01
       H -2.84157e+00  1.47853e+00  1.16973e+00
       H -3.66377e+00  1.50013e+00 -3.47931e-01
4
# CELL(abcABC): 1000.00000  1000.00000  1000.00000    90.00000    90.00000    90.00000  Step:           2  Bead:       0 positions{angstrom}  cell{angstrom}
       O -3.14866e+00  1.06860e+00  3.43875e-01
       H -2.88383e+00  1.28109e-01  4.06058e-01
       H -2.84125e+00  1.47683e+00  1.16627e+00
       H -3.68093e+00  1.50332e+00 -3.45150e-01
4
# CELL(abcABC): 1000.00000  1000.00000  1000.00000    90.00000    90.00000    90.00000  Step:           3  Bead:       0 positions{angstrom}  cell{angstrom}
       O -3.14667e+00  1.06843e+00  3.43854e-01
       H -2.89698e+00  1.29531e-01  4.10120e-01
       H -2.84194e+00  1.47583e+00  1.16091e+00
       H -3.69871e+00  1.50556e+00 -3.43511e-01
4
# CELL(abcABC): 1000.00000  1000.00000  1000.00000    90.00000    90.00000    90.00000  Step:           4  Bead:       0 positions{angstrom}  cell{angstrom}
       O -3.14463e+00  1.06817e+00  3.44074e-01
       H -2.91150e+00  1.32780e-01  4.12224e-01
       H -2.84247e+00  1.47545e+00  1.15328e+00
       H -3.71603e+00  1.50673e+00 -3.41482e-01
4
# CELL(abcABC): 1000.00000  1000.00000  1000.00000    90.00000    90.00000    90.00000  Step:           5  Bead:       0 positions{angstrom}  cell{angstrom}
       O -3.14248e+00  1.06772e+00  3.44424e-01
       H -2.92760e+00  1.38134e-01  4.13324e-01
       H -2.84375e+00  1.47664e+00  1.14578e+00
       H -3.73275e+00  1.50745e+00 -3.40637e-01
4
# CELL(abcABC): 1000.00000  1000.00000  1000.00000    90.00000    90.00000    90.00000  Step:           6  Bead:       0 positions{angstrom}  cell{angstrom}
       O -3.14027e+00  1.06731e+00  3.44824e-01
       H -2.94401e+00  1.44556e-01  4.12932e-01
       H -2.84541e+00  1.47700e+00  1.13730e+00
       H -3.74970e+00  1.50703e+00 -3.38117e-01
4
# CELL(abcABC): 1000.00000  1000.00000  1000.00000    90.00000    90.00000    90.00000  Step:           7  Bead:       0 positions{angstrom}  cell{angstrom}
       O -3.13824e+00  1.06687e+00  3.44951e-01
       H -2.95891e+00  1.50326e-01  4.13499e-01
       H -2.84655e+00  1.47813e+00  1.13076e+00
       H -3.76598e+00  1.50721e+00 -3.34160e-01
4
# CELL(abcABC): 1000.00000  1000.00000  1000.00000    90.00000    90.00000    90.00000  Step:           8  Bead:       0 positions{angstrom}  cell{angstrom}
       O -3.13647e+00  1.06656e+00  3.44975e-01
       H -2.97232e+00  1.54077e-01  4.13283e-01
       H -2.84561e+00  1.47967e+00  1.12554e+00
       H -3.78148e+00  1.50682e+00 -3.29106e-01
4
# CELL(abcABC): 1000.00000  1000.00000  1000.00000    90.00000    90.00000    90.00000  Step:           9  Bead:       0 positions{angstrom}  cell{angstrom}
       O -3.13499e+00  1.06652e+00  3.44657e-01
       H -2.98485e+00  1.53914e-01  4.14239e-01
       H -2.84227e+00  1.48273e+00  1.12343e+00
       H -3.79584e+00  1.50452e+00 -3.22905e-01
4
# CELL(abcABC): 1000.00000  1000.00000  1000.00000    90.00000    90.00000    90.00000  Step:          10  Bead:       0 positions{angstrom}  cell{angstrom}
       O -3.13377e+00  1.06663e+00  3.44237e-01
       H -2.99616e+00  1.50335e-01  4.14585e-01
       H -2.83731e+00  1.48761e+00  1.12305e+00
       H -3.80886e+00  1.50152e+00 -3.16204e-01
4
# CELL(abcABC): 1000.00000  1000.00000  1000.00000    90.00000    90.00000    90.00000  Step:          11  Bead:       0 positions{angstrom}  cell{angstrom}
       O -3.13281e+00  1.06696e+00  3.43757e-01
       H -3.00601e+00  1.44437e-01  4.13838e-01
       H -2.83228e+00  1.49294e+00  1.12428e+00
       H -3.81925e+00  1.49685e+00 -3.09060e-01
4
# CELL(abcABC): 1000.00000  1000.00000  1000.00000    90.00000    90.00000    90.00000  Step:          12  Bead:       0 positions{angstrom}  cell{angstrom}
       O -3.13226e+00  1.06754e+00  3.43191e-01
       H -3.01327e+00  1.36174e-01  4.13007e-01
       H -2.82618e+00  1.49726e+00  1.12588e+00
       H -3.82690e+00  1.49158e+00 -3.00851e-01
4
# CELL(abcABC): 1000.00000  1000.00000  1000.00000    90.00000    90.00000    90.00000  Step:          13  Bead:       0 positions{angstrom}  cell{angstrom}
       O -3.13203e+00  1.06827e+00  3.42494e-01
       H -3.01919e+00  1.27607e-01  4.12666e-01
       H -2.81789e+00  1.50119e+00  1.12819e+00
       H -3.83283e+00  1.48456e+00 -2.91760e-01
4
# CELL(abcABC): 1000.00000  1000.00000  1000.00000    90.00000    90.00000    90.00000  Step:          14  Bead:       0 positions{angstrom}  cell{angstrom}
       O -3.13212e+00  1.06907e+00  3.41702e-01
       H -3.02254e+00  1.19207e-01  4.13007e-01
       H -2.80850e+00  1.50499e+00  1.13040e+00
       H -3.83751e+00  1.47657e+00 -2.81739e-01
4
# CELL(abcABC): 1000.00000  1000.00000  1000.00000    90.00000    90.00000    90.00000  Step:          15  Bead:       0 positions{angstrom}  cell{angstrom}
       O -3.13235e+00  1.06976e+00  3.40691e-01
       H -3.02679e+00  1.12042e-01  4.15770e-01
       H -2.79947e+00  1.50819e+00  1.13194e+00
       H -3.83854e+00  1.46951e+00 -2.69991e-01
4
# CELL(abcABC): 1000.00000  1000.00000  1000.00000    90.00000    90.00000    90.00000  Step:          16  Bead:       0 positions{angstrom}  cell{angstrom}
       O -3.13281e+00  1.07033e+00  3.39730e-01
       H -3.02911e+00  1.07292e-01  4.18421e-01
       H -2.79074e+00  1.51107e+00  1.13198e+00
       H -3.83779e+00  1.46231e+00 -2.57421e-01
4
# CELL(abcABC): 1000.00000  1000.00000  1000.00000    90.00000    90.00000    90.00000  Step:          17  Bead:       0 positions{angstrom}  cell{angstrom}
       O -3.13330e+00  1.07080e+00  3.38862e-01
       H -3.02994e+00  1.06480e-01  4.21450e-01
       H -2.78350e+00  1.51305e+00  1.12896e+00
       H -3.83645e+00  1.45370e+00 -2.43652e-01
4
# CELL(abcABC): 1000.00000  1000.00000  1000.00000    90.00000    90.00000    90.00000  Step:          18  Bead:       0 positions{angstrom}  cell{angstrom}
       O -3.13383e+00  1.07106e+00  3.38122e-01
       H -3.03113e+00  1.10184e-01  4.24738e-01
       H -2.77578e+00  1.51346e+00  1.12354e+00
       H -3.83444e+00  1.44552e+00 -2.29781e-01
4
# CELL(abcABC): 1000.00000  1000.00000  1000.00000    90.00000    90.00000    90.00000  Step:          19  Bead:       0 positions{angstrom}  cell{angstrom}
       O -3.13452e+00  1.07124e+00  3.37517e-01
       H -3.03125e+00  1.17082e-01  4.28492e-01
       H -2.76953e+00  1.51186e+00  1.11514e+00
       H -3.82969e+00  1.43733e+00 -2.15530e-01
4
# CELL(abcABC): 1000.00000  1000.00000  1000.00000    90.00000    90.00000    90.00000  Step:          20  Bead:       0 positions{angstrom}  cell{angstrom}
       O -3.13524e+00  1.07137e+00  3.37126e-01
       H -3.03063e+00  1.26969e-01  4.30765e-01
       H -2.76477e+00  1.50925e+00  1.10505e+00
       H -3.82362e+00  1.42804e+00 -2.01505e-01
4
# CELL(abcABC): 1000.00000  1000.00000  1000.00000    90.00000    90.00000    90.00000  Step:          21  Bead:       0 positions{angstrom}  cell{angstrom}
       O -3.13608e+00  1.07143e+00  3.36956e-01
       H -3.02971e+00  1.37666e-01  4.31706e-01
       H -2.75866e+00  1.50659e+00  1.09463e+00
       H -3.81736e+00  1.41905e+00 -1.89317e-01
4
# CELL(abcABC): 1000.00000  1000.00000  1000.00000    90.00000    90.00000    90.00000  Step:          22  Bead:       0 positions{angstrom}  cell{angstrom}
       O -3.13702e+00  1.07139e+00  3.37019e-01
       H -3.02913e+00  1.47361e-01  4.33422e-01
       H -2.75027e+00  1.50409e+00  1.08198e+00
       H -3.81131e+00  1.41244e+00 -1.79386e-01
4
# CELL(abcABC): 1000.00000  1000.00000  1000.00000    90.00000    90.00000    90.00000  Step:          23  Bead:       0 positions{angstrom}  cell{angstrom}
       O -3.13806e+00  1.07136e+00  3.37384e-01
       H -3.02756e+00  1.56089e-01  4.34436e-01
       H -2.74031e+00  1.50255e+00  1.06986e+00
       H -3.80639e+00  1.40573e+00 -1.74076e-01
4
# CELL(abcABC): 1000.00000  1000.00000  1000.00000    90.00000    90.00000    90.00000  Step:          24  Bead:       0 positions{angstrom}  cell{angstrom}
       O -3.13919e+00  1.07129e+00  3.37846e-01
       H -3.02450e+00  1.61050e-01  4.35285e-01
       H -2.72887e+00  1.50304e+00  1.05875e+00
       H -3.80300e+00  1.40147e+00 -1.71143e-01
4
# CELL(abcABC): 1000.00000  1000.00000  1000.00000    90.00000    90.00000    90.00000  Step:          25  Bead:       0 positions{angstrom}  cell{angstrom}
       O -3.14033e+00  1.07137e+00  3.38287e-01
       H -3.02057e+00  1.61560e-01  4.36894e-01
       H -2.71644e+00  1.50410e+00  1.04894e+00
       H -3.80116e+00  1.39859e+00 -1.69955e-01
4
# CELL(abcABC): 1000.00000  1000.00000  1000.00000    90.00000    90.00000    90.00000  Step:          26  Bead:       0 positions{angstrom}  cell{angstrom}
       O -3.14151e+00  1.07158e+00  3.38766e-01
       H -3.01578e+00  1.58044e-01  4.37738e-01
       H -2.70229e+00  1.50622e+00  1.04019e+00
       H -3.80139e+00  1.39655e+00 -1.69654e-01
4
# CELL(abcABC): 1000.00000  1000.00000  1000.00000    90.00000    90.00000    90.00000  Step:          27  Bead:       0 positions{angstrom}  cell{angstrom}
       O -3.14281e+00  1.07179e+00  3.39344e-01
       H -3.01042e+00  1.52884e-01  4.37779e-01
       H -2.68679e+00  1.50877e+00  1.03223e+00
       H -3.80157e+00  1.39588e+00 -1.70896e-01
4
# CELL(abcABC): 1000.00000  1000.00000  1000.00000    90.00000    90.00000    90.00000  Step:          28  Bead:       0 positions{angstrom}  cell{angstrom}
       O -3.14406e+00  1.07195e+00  3.39953e-01
       H -3.00555e+00  1.44601e-01  4.37426e-01
       H -2.66959e+00  1.51251e+00  1.02532e+00
       H -3.80384e+00  1.39785e+00 -1.73297e-01
4
# CELL(abcABC): 1000.00000  1000.00000  1000.00000    90.00000    90.00000    90.00000  Step:          29  Bead:       0 positions{angstrom}  cell{angstrom}
       O -3.14530e+00  1.07196e+00  3.40703e-01
       H -2.99963e+00  1.36413e-01  4.35287e-01
       H -2.65267e+00  1.51689e+00  1.01863e+00
       H -3.80699e+00  1.40151e+00 -1.76389e-01
4
# CELL(abcABC): 1000.00000  1000.00000  1000.00000    90.00000    90.00000    90.00000  Step:          30  Bead:       0 positions{angstrom}  cell{angstrom}
       O -3.14648e+00  1.07169e+00  3.41573e-01
       H -2.99317e+00  1.30250e-01  4.33445e-01
       H -2.63583e+00  1.52151e+00  1.01201e+00
       H -3.81157e+00  1.40733e+00 -1.81735e-01
4
# CELL(abcABC): 1000.00000  1000.00000  1000.00000    90.00000    90.00000    90.00000  Step:          31  Bead:       0 positions{angstrom}  cell{angstrom}
       O -3.14771e+00  1.07111e+00  3.42680e-01
       H -2.98514e+00  1.26148e-01  4.31296e-01
       H -2.61880e+00  1.52710e+00  1.00380e+00
       H -3.81719e+00  1.41507e+00 -1.88946e-01
4
# CELL(abcABC): 1000.00000  1000.00000  1000.00000    90.00000    90.00000    90.00000  Step:          32  Bead:       0 positions{angstrom}  cell{angstrom}
       O -3.14880e+00  1.07043e+00  3.43797e-01
       H -2.97818e+00  1.22597e-01  4.29268e-01
       H -2.60217e+00  1.53342e+00  9.95344e-01
       H -3.82345e+00  1.42316e+00 -1.96187e-01
4
# CELL(abcABC): 1000.00000  1000.00000  1000.00000    90.00000    90.00000    90.00000  Step:          33  Bead:       0 positions{angstrom}  cell{angstrom}
       O -3.14974e+00  1.06970e+00  3.45003e-01
       H -2.97207e+00  1.21134e-01  4.28002e-01
       H -2.58669e+00  1.53778e+00  9.85446e-01
       H -3.83004e+00  1.43178e+00 -2.04166e-01
4
# CELL(abcABC): 1000.00000  1000.00000  1000.00000    90.00000    90.00000    90.00000  Step:          34  Bead:       0 positions{angstrom}  cell{angstrom}
       O -3.15041e+00  1.06888e+00  3.46501e-01
       H -2.96594e+00  1.22322e-01  4.26109e-01
       H -2.57492e+00  1.54037e+00  9.73708e-01
       H -3.83733e+00  1.44107e+00 -2.14315e-01
4
# CELL(abcABC): 1000.00000  1000.00000  1000.00000    90.00000    90.00000    90.00000  Step:          35  Bead:       0 positions{angstrom}  cell{angstrom}
       O -3.15098e+00  1.06793e+00  3.48171e-01
       H -2.95856e+00  1.25999e-01  4.23014e-01
       H -2.56638e+00  1.54256e+00  9.60565e-01
       H -3.84419e+00  1.45025e+00 -2.24596e-01
4
# CELL(abcABC): 1000.00000  1000.00000  1000.00000    90.00000    90.00000    90.00000  Step:          36  Bead:       0 positions{angstrom}  cell{angstrom}
       O -3.15148e+00  1.06685e+00  3.49992e-01
       H -2.95135e+00  1.31727e-01  4.18966e-01
       H -2.55959e+00  1.54484e+00  9.44807e-01
       H -3.85021e+00  1.45937e+00 -2.33693e-01
4
# CELL(abcABC): 1000.00000  1000.00000  1000.00000    90.00000    90.00000    90.00000  Step:          37  Bead:       0 positions{angstrom}  cell{angstrom}
       O -3.15199e+00  1.06583e+00  3.51779e-01
       H -2.94382e+00  1.39518e-01  4.16316e-01
       H -2.55383e+00  1.54554e+00  9.27249e-01
       H -3.85541e+00  1.46705e+00 -2.41843e-01
4
# CELL(abcABC): 1000.00000  1000.00000  1000.00000    90.00000    90.00000    90.00000  Step:          38  Bead:       0 positions{angstrom}  cell{angstrom}
       O -3.15236e+00  1.06487e+00  3.53741e-01
       H -2.93742e+00  1.47309e-01  4.12202e-01
       H -2.54893e+00  1.54458e+00  9.08722e-01
       H -3.86096e+00  1.47552e+00 -2.50346e-01
4
# CELL(abcABC): 1000.00000  1000.00000  1000.00000    90.00000    90.00000    90.00000  Step:          39  Bead:       0 positions{angstrom}  cell{angstrom}
       O -3.15297e+00  1.06414e+00  3.55534e-01
       H -2.93024e+00  1.53633e-01  4.08424e-01
       H -2.54371e+00  1.54241e+00  8.91199e-01
       H -3.86363e+00  1.48301e+00 -2.57501e-01
4
# CELL(abcABC): 1000.00000  1000.00000  1000.00000    90.00000    90.00000    90.00000  Step:          40  Bead:       0 positions{angstrom}  cell{angstrom}
       O -3.15378e+00  1.06349e+00  3.57005e-01
       H -2.92283e+00  1.58390e-01  4.05501e-01
       H -2.53750e+00  1.54093e+00  8.76176e-01
       H -3.86440e+00  1.49000e+00 -2.62915e-01
4
# CELL(abcABC): 1000.00000  1000.00000  1000.00000    90.00000    90.00000    90.00000  Step:          41  Bead:       0 positions{angstrom}  cell{angstrom}
       O -3.15478e+00  1.06296e+00  3.58237e-01
       H -2.91547e+00  1.61597e-01  4.02089e-01
       H -2.52943e+00  1.54077e+00  8.62860e-01
       H -3.86396e+00  1.49532e+00 -2.65736e-01
4
# CELL(abcABC): 1000.00000  1000.00000  1000.00000    90.00000    90.00000    90.00000  Step:          42  Bead:       0 positions{angstrom}  cell{angstrom}
       O -3.15609e+00  1.06273e+00  3.59309e-01
       H -2.90641e+00  1.60357e-01  3.98297e-01
       H -2.51966e+00  1.54177e+00  8.51519e-01
       H -3.86195e+00  1.49926e+00 -2.67631e-01
4
# CELL(abcABC): 1000.00000  1000.00000  1000.00000    90.00000    90.00000    90.00000  Step:          43  Bead:       0 positions{angstrom}  cell{angstrom}
       O -3.15756e+00  1.06258e+00  3.60189e-01
       H -2.89755e+00  1.57801e-01  3.94068e-01
       H -2.50850e+00  1.54512e+00  8.41951e-01
       H -3.85861e+00  1.50083e+00 -2.67799e-01
4
# CELL(abcABC): 1000.00000  1000.00000  1000.00000    90.00000    90.00000    90.00000  Step:          44  Bead:       0 positions{angstrom}  cell{angstrom}
       O -3.15912e+00  1.06260e+00  3.60888e-01
       H -2.88866e+00  1.53114e-01  3.89109e-01
       H -2.49658e+00  1.54873e+00  8.33101e-01
       H -3.85471e+00  1.50164e+00 -2.65081e-01
4
# CELL(abcABC): 1000.00000  1000.00000  1000.00000    90.00000    90.00000    90.00000  Step:          45  Bead:       0 positions{angstrom}  cell{angstrom}
       O -3.16061e+00  1.06274e+00  3.61499e-01
       H -2.88086e+00  1.48080e-01  3.83351e-01
       H -2.48398e+00  1.55190e+00  8.24196e-01
       H -3.85143e+00  1.50123e+00 -2.60123e-01
4
# CELL(abcABC): 1000.00000  1000.00000  1000.00000    90.00000    90.00000    90.00000  Step:          46  Bead:       0 positions{angstrom}  cell{angstrom}
       O -3.16209e+00  1.06297e+00  3.62031e-01
       H -2.87400e+00  1.44152e-01  3.77011e-01
       H -2.47225e+00  1.55394e+00  8.15121e-01
       H -3.84649e+00  1.49944e+00 -2.53148e-01
4
# CELL(abcABC): 1000.00000  1000.00000  1000.00000    90.00000    90.00000    90.00000  Step:          47  Bead:       0 positions{angstrom}  cell{angstrom}
       O -3.16343e+00  1.06312e+00  3.62605e-01
       H -2.86825e+00  1.41221e-01  3.70774e-01
       H -2.46175e+00  1.55556e+00  8.05119e-01
       H -3.84155e+00  1.49835e+00 -2.46019e-01
4
# CELL(abcABC): 1000.00000  1000.00000  1000.00000    90.00000    90.00000    90.00000  Step:          48  Bead:       0 positions{angstrom}  cell{angstrom}
       O -3.16456e+00  1.06336e+00  3.63108e-01
       H -2.86338e+00  1.39083e-01  3.64703e-01
       H -2.45314e+00  1.55687e+00  7.94059e-01
       H -3.83708e+00  1.49539e+00 -2.36879e-01
4
# CELL(abcABC): 1000.00000  1000.00000  1000.00000    90.00000    90.00000    90.00000  Step:          49  Bead:       0 positions{angstrom}  cell{angstrom}
       O -3.16550e+00  1.06357e+00  3.63451e-01
       H -2.86001e+00  1.38719e-01  3.59104e-01
       H -2.44553e+00  1.55686e+00  7.82665e-01
       H -3.83316e+00  1.49244e+00 -2.25331e-01
4
# CELL(abcABC): 1000.00000  1000.00000  1000.00000    90.00000    90.00000    90.00000  Step:          50  Bead:       0 positions{angstrom}  cell{angstrom}
       O -3.16599e+00  1.06380e+00  3.63857e-01
       H -2.85869e+00  1.40877e-01  3.53133e-01
       H -2.44205e+00  1.55508e+00  7.70855e-01
       H -3.83013e+00  1.48847e+00 -2.13988e-01
4
# CELL(abcABC): 1000.00000  1000.00000  1000.00000    90.00000    90.00000    90.00000  Step:          51  Bead:       0 positions{angstrom}  cell{angstrom}
       O -3.16621e+00  1.06395e+00  3.64237e-01
       H -2.85953e+00  1.44855e-01  3.46661e-01
       H -2.44110e+00  1.55283e+00  7.58572e-01
       H -3.82677e+00  1.48433e+00 -2.01268e-01
4
# CELL(abcABC): 1000.00000  1000.00000  1000.00000    90.00000    90.00000    90.00000  Step:          52  Bead:       0 positions{angstrom}  cell{angstrom}
       O -3.16614e+00  1.06412e+00  3.64681e-01
       H -2.86251e+00  1.50405e-01  3.40169e-01
       H -2.44220e+00  1.54964e+00  7.45119e-01
       H -3.82379e+00  1.47919e+00 -1.88367e-01
4
# CELL(abcABC): 1000.00000  1000.00000  1000.00000    90.00000    90.00000    90.00000  Step:          53  Bead:       0 positions{angstrom}  cell{angstrom}
       O -3.16587e+00  1.06420e+00  3.65027e-01
       H -2.86649e+00  1.57582e-01  3.32772e-01
       H -2.44463e+00  1.54812e+00  7.32715e-01
       H -3.82177e+00  1.47237e+00 -1.74053e-01
4
# CELL(abcABC): 1000.00000  1000.00000  1000.00000    90.00000    90.00000    90.00000  Step:          54  Bead:       0 positions{angstrom}  cell{angstrom}
       O -3.16540e+00  1.06430e+00  3.65022e-01
       H -2.87182e+00  1.64039e-01  3.26522e-01
       H -2.44767e+00  1.54817e+00  7.21975e-01
       H -3.82084e+00  1.46426e+00 -1.56996e-01
4
# CELL(abcABC): 1000.00000  1000.00000  1000.00000    90.00000    90.00000    90.00000  Step:          55  Bead:       0 positions{angstrom}  cell{angstrom}
       O -3.16486e+00  1.06438e+00  3.64878e-01
       H -2.87864e+00  1.69875e-01  3.21178e-01
       H -2.45000e+00  1.54969e+00  7.13215e-01
       H -3.82027e+00  1.45566e+00 -1.40599e-01
4
# CELL(abcABC): 1000.00000  1000.00000  1000.00000    90.00000    90.00000    90.00000  Step:          56  Bead:       0 positions{angstrom}  cell{angstrom}
       O -3.16431e+00  1.06441e+00  3.64621e-01
       H -2.88375e+00  1.74261e-01  3.16619e-01
       H -2.45133e+00  1.55262e+00  7.04944e-01
       H -3.82242e+00  1.44786e+00 -1.23687e-01
4
# CELL(abcABC): 1000.00000  1000.00000  1000.00000    90.00000    90.00000    90.00000  Step:          57  Bead:       0 positions{angstrom}  cell{angstrom}
       O -3.16373e+00  1.06441e+00  3.64208e-01
       H -2.88733e+00  1.76783e-01  3.12808e-01
       H -2.45215e+00  1.55691e+00  6.99400e-01
       H -3.82732e+00  1.44107e+00 -1.07781e-01
4
# CELL(abcABC): 1000.00000  1000.00000  1000.00000    90.00000    90.00000    90.00000  Step:          58  Bead:       0 positions{angstrom}  cell{angstrom}
       O -3.16320e+00  1.06448e+00  3.63704e-01
       H -2.88951e+00  1.75680e-01  3.09105e-01
       H -2.45086e+00  1.56293e+00  6.96280e-01
       H -3.83480e+00  1.43499e+00 -9.29490e-02
4
# CELL(abcABC): 1000.00000  1000.00000  1000.00000    90.00000    90.00000    90.00000  Step:          59  Bead:       0 positions{angstrom}  cell{angstrom}
       O -3.16271e+00  1.06454e+00  3.63010e-01
       H -2.89028e+00  1.71977e-01  3.05833e-01
       H -2.44774e+00  1.57083e+00  6.96404e-01
       H -3.84501e+00  1.42978e+00 -7.87851e-02
4
# CELL(abcABC): 1000.00000  1000.00000  1000.00000    90.00000    90.00000    90.00000  Step:          60  Bead:       0 positions{angstrom}  cell{angstrom}
       O -3.16219e+00  1.06470e+00  3.62315e-01
       H -2.89155e+00  1.65791e-01  3.03057e-01
       H -2.44291e+00  1.57880e+00  6.96263e-01
       H -3.85672e+00  1.42553e+00 -6.48367e-02
4
# CELL(abcABC): 1000.00000  1000.00000  1000.00000    90.00000    90.00000    90.00000  Step:          61  Bead:       0 positions{angstrom}  cell{angstrom}
       O -3.16168e+00  1.06493e+00  3.61625e-01
       H -2.89149e+00  1.57878e-01  3.00529e-01
       H -2.43664e+00  1.58642e+00  6.95710e-01
       H -3.87124e+00  1.42210e+00 -5.08061e-02
4
# CELL(abcABC): 1000.00000  1000.00000  1000.00000    90.00000    90.00000    90.00000  Step:          62  Bead:       0 positions{angstrom}  cell{angstrom}
       O -3.16094e+00  1.06528e+00  3.61064e-01
       H -2.89195e+00  1.49095e-01  2.98146e-01
       H -2.43217e+00  1.59262e+00  6.95056e-01
       H -3.88696e+00  1.41924e+00 -3.88663e-02
4
# CELL(abcABC): 1000.00000  1000.00000  1000.00000    90.00000    90.00000    90.00000  Step:          63  Bead:       0 positions{angstrom}  cell{angstrom}
       O -3.15996e+00  1.06551e+00  3.60352e-01
       H -2.89204e+00  1.42469e-01  2.96923e-01
       H -2.42920e+00  1.59653e+00  6.94306e-01
       H -3.90531e+00  1.41832e+00 -2.55857e-02
4
# CELL(abcABC): 1000.00000  1000.00000  1000.00000    90.00000    90.00000    90.00000  Step:          64  Bead:       0 positions{angstrom}  cell{angstrom}
       O -3.15884e+00  1.06569e+00  3.59596e-01
       H -2.89099e+00  1.38228e-01  2.97429e-01
       H -2.42739e+00  1.59830e+00  6.93459e-01
       H -3.92608e+00  1.41779e+00 -1.32557e-02
4
# CELL(abcABC): 1000.00000  1000.00000  1000.00000    90.00000    90.00000    90.00000  Step:          65  Bead:       0 positions{angstrom}  cell{angstrom}
       O -3.15754e+00  1.06577e+00  3.58851e-01
       H -2.89092e+00  1.37321e-01  2.97597e-01
       H -2.42648e+00  1.59930e+00  6.92233e-01
       H -3.94759e+00  1.41652e+00 -3.66411e-04
4
# CELL(abcABC): 1000.00000  1000.00000  1000.00000    90.00000    90.00000    90.00000  Step:          66  Bead:       0 positions{angstrom}  cell{angstrom}
       O -3.15613e+00  1.06569e+00  3.57990e-01
       H -2.89115e+00  1.41905e-01  2.99163e-01
       H -2.42693e+00  1.59683e+00  6.91073e-01
       H -3.96930e+00  1.41570e+00  1.28958e-02
4
# CELL(abcABC): 1000.00000  1000.00000  1000.00000    90.00000    90.00000    90.00000  Step:          67  Bead:       0 positions{angstrom}  cell{angstrom}
       O -3.15458e+00  1.06565e+00  3.57089e-01
       H -2.89118e+00  1.48076e-01  3.00525e-01
       H -2.42803e+00  1.59274e+00  6.90282e-01
       H -3.99285e+00  1.41416e+00  2.66230e-02
4
# CELL(abcABC): 1000.00000  1000.00000  1000.00000    90.00000    90.00000    90.00000  Step:          68  Bead:       0 positions{angstrom}  cell{angstrom}
       O -3.15305e+00  1.06558e+00  3.56287e-01
       H -2.89043e+00  1.55614e-01  3.02057e-01
       H -2.42946e+00  1.58747e+00  6.87905e-01
       H -4.01644e+00  1.41301e+00  4.02030e-02
4
# CELL(abcABC): 1000.00000  1000.00000  1000.00000    90.00000    90.00000    90.00000  Step:          69  Bead:       0 positions{angstrom}  cell{angstrom}
       O -3.15153e+00  1.06568e+00  3.55247e-01
       H -2.88965e+00  1.62149e-01  3.05530e-01
       H -2.43163e+00  1.58160e+00  6.86642e-01
       H -4.03912e+00  1.41082e+00  5.44980e-02
4
# CELL(abcABC): 1000.00000  1000.00000  1000.00000    90.00000    90.00000    90.00000  Step:          70  Bead:       0 positions{angstrom}  cell{angstrom}
       O -3.15033e+00  1.06572e+00  3.54143e-01
       H -2.88785e+00  1.68733e-01  3.08249e-01
       H -2.43294e+00  1.57649e+00  6.85554e-01
       H -4.05865e+00  1.40870e+00  7.03953e-02
4
# CELL(abcABC): 1000.00000  1000.00000  1000.00000    90.00000    90.00000    90.00000  Step:          71  Bead:       0 positions{angstrom}  cell{angstrom}
       O -3.14932e+00  1.06595e+00  3.53036e-01
       H -2.88590e+00  1.72608e-01  3.09605e-01
       H -2.43349e+00  1.57141e+00  6.84660e-01
       H -4.07618e+00  1.40625e+00  8.75074e-02
4
# CELL(abcABC): 1000.00000  1000.00000  1000.00000    90.00000    90.00000    90.00000  Step:          72  Bead:       0 positions{angstrom}  cell{angstrom}
       O -3.14863e+00  1.06620e+00  3.51806e-01
       H -2.88264e+00  1.74505e-01  3.11156e-01
       H -2.43218e+00  1.56755e+00  6.85319e-01
       H -4.09167e+00  1.40428e+00  1.04820e-01
4
# CELL(abcABC): 1000.00000  1000.00000  1000.00000    90.00000    90.00000    90.00000  Step:          73  Bead:       0 positions{angstrom}  cell{angstrom}
       O -3.14821e+00  1.06659e+00  3.50580e-01
       H -2.87859e+00  1.73737e-01  3.12388e-01
       H -2.42915e+00  1.56535e+00  6.86838e-01
       H -4.10545e+00  1.40097e+00  1.21525e-01
4
# CELL(abcABC): 1000.00000  1000.00000  1000.00000    90.00000    90.00000    90.00000  Step:          74  Bead:       0 positions{angstrom}  cell{angstrom}
       O -3.14811e+00  1.06703e+00  3.49465e-01
       H -2.87341e+00  1.70760e-01  3.12095e-01
       H -2.42462e+00  1.56448e+00  6.87906e-01
       H -4.11662e+00  1.39791e+00  1.38451e-01
4
# CELL(abcABC): 1000.00000  1000.00000  1000.00000    90.00000    90.00000    90.00000  Step:          75  Bead:       0 positions{angstrom}  cell{angstrom}
       O -3.14812e+00  1.06757e+00  3.48327e-01
       H -2.86819e+00  1.65135e-01  3.10991e-01
       H -2.41968e+00  1.56412e+00  6.90218e-01
       H -4.12674e+00  1.39531e+00  1.55301e-01
4
# CELL(abcABC): 1000.00000  1000.00000  1000.00000    90.00000    90.00000    90.00000  Step:          76  Bead:       0 positions{angstrom}  cell{angstrom}
       O -3.14840e+00  1.06800e+00  3.47065e-01
       H -2.86194e+00  1.59103e-01  3.10717e-01
       H -2.41445e+00  1.56464e+00  6.92838e-01
       H -4.13373e+00  1.39395e+00  1.72985e-01
4
# CELL(abcABC): 1000.00000  1000.00000  1000.00000    90.00000    90.00000    90.00000  Step:          77  Bead:       0 positions{angstrom}  cell{angstrom}
       O -3.14872e+00  1.06838e+00  3.45792e-01
       H -2.85597e+00  1.54373e-01  3.10207e-01
       H -2.40996e+00  1.56591e+00  6.95963e-01
       H -4.13904e+00  1.39146e+00  1.90588e-01
4
# CELL(abcABC): 1000.00000  1000.00000  1000.00000    90.00000    90.00000    90.00000  Step:          78  Bead:       0 positions{angstrom}  cell{angstrom}
       O -3.14905e+00  1.06871e+00  3.44735e-01
       H -2.85172e+00  1.50197e-01  3.08506e-01
       H -2.40554e+00  1.56790e+00  6.98401e-01
       H -4.14250e+00  1.38843e+00  2.06628e-01
4
# CELL(abcABC): 1000.00000  1000.00000  1000.00000    90.00000    90.00000    90.00000  Step:          79  Bead:       0 positions{angstrom}  cell{angstrom}
       O -3.14944e+00  1.06906e+00  3.43727e-01
       H -2.84895e+00  1.48463e-01  3.07806e-01
       H -2.40124e+00  1.56872e+00  6.99875e-01
       H -4.14337e+00  1.38369e+00  2.21843e-01
4
# CELL(abcABC): 1000.00000  1000.00000  1000.00000    90.00000    90.00000    90.00000  Step:          80  Bead:       0 positions{angstrom}  cell{angstrom}
       O -3.14989e+00  1.06936e+00  3.42719e-01
       H -2.84682e+00  1.49283e-01  3.06820e-01
       H -2.39832e+00  1.56865e+00  7.01372e-01
       H -4.14139e+00  1.37815e+00  2.37331e-01
4
# CELL(abcABC): 1000.00000  1000.00000  1000.00000    90.00000    90.00000    90.00000  Step:          81  Bead:       0 positions{angstrom}  cell{angstrom}
       O -3.15032e+00  1.06946e+00  3.41902e-01
       H -2.84370e+00  1.53297e-01  3.04871e-01
       H -2.39802e+00  1.56969e+00  7.01848e-01
       H -4.13791e+00  1.37152e+00  2.51786e-01
4
# CELL(abcABC): 1000.00000  1000.00000  1000.00000    90.00000    90.00000    90.00000  Step:          82  Bead:       0 positions{angstrom}  cell{angstrom}
       O -3.15066e+00  1.06965e+00  3.41131e-01
       H -2.84097e+00  1.58765e-01  3.03284e-01
       H -2.39955e+00  1.56875e+00  7.00948e-01
       H -4.13370e+00  1.36402e+00  2.66502e-01
4
# CELL(abcABC): 1000.00000  1000.00000  1000.00000    90.00000    90.00000    90.00000  Step:          83  Bead:       0 positions{angstrom}  cell{angstrom}
       O -3.15095e+00  1.06974e+00  3.40511e-01
       H -2.83921e+00  1.66208e-01  3.01648e-01
       H -2.40316e+00  1.56763e+00  6.98772e-01
       H -4.12734e+00  1.35632e+00  2.80152e-01
4
# CELL(abcABC): 1000.00000  1000.00000  1000.00000    90.00000    90.00000    90.00000  Step:          84  Bead:       0 positions{angstrom}  cell{angstrom}
       O -3.15113e+00  1.06981e+00  3.40075e-01
       H -2.83720e+00  1.73682e-01  2.98428e-01
       H -2.40955e+00  1.56646e+00  6.95321e-01
       H -4.11999e+00  1.34880e+00  2.93755e-01
4
# CELL(abcABC): 1000.00000  1000.00000  1000.00000    90.00000    90.00000    90.00000  Step:          85  Bead:       0 positions{angstrom}  cell{angstrom}