11135
# CELL(abcABC):   47.46614    47.46614    47.46614    90.00000    90.00000    90.00000  Step:        2550  Bead:       0 positions{angstrom}  cell{angstrom}
       C -6.01171e+00 -2.34996e+00  2.29395e+00
       H -5.65134e+00 -2.11455e+00  3.28906e+00
       H -6.24218e+00 -3.43113e+00  2.10491e+00
       H -7.02448e+00 -1.83728e+00  2.15044e+00
       C -4.92019e+00 -2.04777e+00  1.34688e+00
       O -4.03645e+00 -2.87977e+00  1.04410e+00
       N -4.87790e+00 -8.14395e-01  9.20608e-01
       H -5.57548e+00 -1.44219e-01  1.17492e+00
       C -3.77717e+00 -3.94533e-01  1.24664e-01
       H -3.50160e+00 -1.09457e+00 -6.52537e-01
       C -4.23461e+00  7.97706e-01 -6.11577e-01
       H -3.45845e+00  1.26471e+00 -1.22049e+00
       H -4.67539e+00  1.54734e+00  8.83621e-02
       C -5.39265e+00  4.33610e-01 -1.62498e+00
       H -6.30125e+00  2.47285e-01 -1.14912e+00
       H -5.08878e+00 -5.08934e-01 -2.15647e+00
       C -5.53952e+00  1.59632e+00 -2.58725e+00
       H -4.68988e+00  1.60615e+00 -3.30904e+00
       H -5.45267e+00  2.57082e+00 -1.95845e+00
       C -6.87668e+00  1.65703e+00 -3.32690e+00
       H -6.99123e+00  2.61172e+00 -3.85867e+00
       H -7.66518e+00  1.62197e+00 -2.57578e+00
       N -7.12202e+00  5.74035e-01 -4.31891e+00
       H -6.38495e+00  5.27796e-01 -5.01953e+00
       H -8.09053e+00  7.81165e-01 -4.84378e+00
       H -7.17502e+00 -3.68890e-01 -3.87798e+00
       C -2.41270e+00 -1.71049e-01  8.38576e-01
       O -2.12950e+00  8.39817e-01  1.48186e+00
       N -1.53260e+00 -1.17063e+00  6.82976e-01
       H -1.79740e+00 -2.14738e+00  4.59018e-01
       H -7.24632e-01 -9.56948e-01  1.14013e+00
       O -1.44957e+01 -4.09836e+00 -2.80167e+01
       H -1.44802e+01 -5.04426e+00 -2.81331e+01
       H -1.47254e+01 -3.72752e+00 -2.88844e+01
       O -2.16435e+01 -6.55278e+00 -7.80408e+00
       H -2.18293e+01 -5.63739e+00 -7.79270e+00
       H -2.15559e+01 -6.73327e+00 -8.76337e+00
       O  1.28621e+01 -1.39493e+01 -2.46143e+00
       H  1.20354e+01 -1.36439e+01 -2.80481e+00
       H  1.35198e+01 -1.33917e+01 -2.86604e+00
       O -1.55755e+01 -1.36217e+01 -2.19569e+01
       H -1.62145e+01 -1.43423e+01 -2.19659e+01
       H -1.56811e+01 -1.33438e+01 -2.28436e+01
       O -9.71205e+00 -1.09678e+01 -1.61075e+01
       H -1.06301e+01 -1.10538e+01 -1.57686e+01
       H -9.30985e+00 -1.06532e+01 -1.52600e+01
       O  2.44588e+01 -2.15767e+01  2.51419e+01
       H  2.41564e+01 -2.14148e+01  2.42730e+01
       H  2.36029e+01 -2.17275e+01  2.55473e+01
       O -1.71179e+01 -9.95563e+00 -3.27452e+00
       H -1.80349e+01 -9.77672e+00 -3.49974e+00
       H -1.72480e+01 -9.99264e+00 -2.28499e+00
       O  1.54235e+01 -2.38286e+01 -1.82826e+01
       H  1.46412e+01 -2.41643e+01 -1.87868e+01
       H  1.50959e+01 -2.38826e+01 -1.73923e+01
       O -1.22988e+01 -1.95843e+01 -2.52614e+00
       H -1.17001e+01 -1.96630e+01 -3.32578e+00
       H -1.30704e+01 -2.01258e+01 -2.78406e+00
       O  1.42315e+01 -1.96274e+01 -5.84663e+00
       H  1.50363e+01 -2.01510e+01 -5.82832e+00
       H  1.37688e+01 -2.00246e+01 -6.62382e+00
       O -3.02421e+01 -1.36904e+01 -3.57954e+00
       H -3.09938e+01 -1.41492e+01 -4.05269e+00
       H -2.96933e+01 -1.44277e+01 -3.36842e+00
       O  8.61874e+00 -2.67800e+01 -5.09966e+00
       H  8.55314e+00 -2.60716e+01 -4.54087e+00
       H  8.93151e+00 -2.74055e+01 -4.44955e+00
       O  7.37742e+00  1.13553e+01 -9.08277e+00
       H  8.16860e+00  1.19331e+01 -9.09637e+00
       H  6.63498e+00  1.19122e+01 -8.87247e+00
       O -3.67017e+01 -1.11551e+01 -8.13121e+00
       H -3.58766e+01 -1.07290e+01 -8.40133e+00
       H -3.72676e+01 -1.12338e+01 -8.88835e+00
       O -3.41253e+00 -1.88278e+01 -2.64910e+01
       H -2.53759e+00 -1.91573e+01 -2.61215e+01
       H -3.82451e+00 -1.82051e+01 -2.58090e+01
       O  7.80112e-01 -1.15203e+01 -9.57654e+00
       H  8.24064e-01 -1.16633e+01 -8.58825e+00
       H  1.19604e+00 -1.06959e+01 -9.72003e+00
       O -5.42114e+00 -1.87895e+01 -3.83837e-02
       H -5.71729e+00 -1.81150e+01 -6.45241e-01
       H -6.20322e+00 -1.93101e+01 -2.06444e-02
       O -1.22632e+00 -1.51368e+01 -2.70556e+01
       H -1.77797e+00 -1.48287e+01 -2.78108e+01
       H -2.80928e-01 -1.49329e+01 -2.74535e+01
       O -7.08508e+00 -1.81658e+01 -1.25278e+01
       H -7.59668e+00 -1.86625e+01 -1.32067e+01
       H -7.76115e+00 -1.79174e+01 -1.19407e+01
       O -6.05162e+00  1.85147e+01  1.73503e+00
       H -6.54402e+00  1.78143e+01  1.22176e+00
       H -6.21530e+00  1.81967e+01  2.60860e+00
       O -2.58370e+01 -7.32707e+00 -3.98569e+00
       H -2.58666e+01 -8.25008e+00 -4.25426e+00
       H -2.67342e+01 -6.92422e+00 -4.17190e+00
       O -2.82183e+01 -4.64262e+00 -7.61198e+00
       H -2.90655e+01 -4.45811e+00 -8.07097e+00
       H -2.78627e+01 -5.26904e+00 -8.24455e+00
       O  2.49283e+01 -1.61289e+01 -2.18707e+01
       H  2.58302e+01 -1.57756e+01 -2.20673e+01
       H  2.50588e+01 -1.65145e+01 -2.09630e+01
       O -1.71314e+01 -1.16845e+01 -1.42466e+01
       H -1.62385e+01 -1.13127e+01 -1.45945e+01
       H -1.75961e+01 -1.08599e+01 -1.41946e+01
       O -6.04758e+00 -2.26976e+01 -1.32880e+01
       H -5.91675e+00 -2.31394e+01 -1.41267e+01
       H -6.99588e+00 -2.29457e+01 -1.32537e+01
       O -2.02852e+01 -1.45236e+01  2.56258e+01
       H -1.94770e+01 -1.49899e+01  2.52945e+01
       H -2.02785e+01 -1.37605e+01  2.50615e+01
       O -3.11358e+00 -3.55485e+01 -2.22741e+01
       H -3.23674e+00 -3.62598e+01 -2.16535e+01
       H -3.73287e+00 -3.57813e+01 -2.29960e+01
       O -4.22160e+00 -5.00004e+00  1.78530e+01
       H -4.23350e+00 -5.86441e+00  1.82893e+01
       H -5.18081e+00 -4.94262e+00  1.79385e+01
       O -1.34832e+01  1.73421e+00 -3.64526e+00
       H -1.26984e+01  1.17306e+00 -3.57383e+00
       H -1.35647e+01  1.88131e+00 -4.54848e+00
       O -2.45286e+01 -5.59688e+00  2.66606e+01
       H -2.43049e+01 -4.84614e+00  2.60504e+01
       H -2.55080e+01 -5.44454e+00  2.68487e+01
       O -1.87377e+01 -1.39245e+01 -1.85669e+01
       H -1.87089e+01 -1.47854e+01 -1.89564e+01
       H -1.81720e+01 -1.40753e+01 -1.78136e+01
       O  3.94124e+00 -1.15989e+01 -2.06640e+01
       H  4.84995e+00 -1.12823e+01 -2.07677e+01
       H  3.86741e+00 -1.19937e+01 -2.15195e+01
       O -2.50432e-01 -1.20676e+01 -2.92802e+01
       H  6.91293e-02 -1.20968e+01 -2.83371e+01
       H -8.77012e-01 -1.28358e+01 -2.92882e+01
       O -3.32222e+00 -2.35541e+01  4.50994e+00
       H -3.30228e+00 -2.43231e+01  5.09022e+00
       H -4.22964e+00 -2.34971e+01  4.23312e+00
       O -1.81755e+01 -1.62773e+01 -1.45212e+01
       H -1.78835e+01 -1.54203e+01 -1.48124e+01
       H -1.74874e+01 -1.67839e+01 -1.49855e+01
       O -2.66832e+01 -2.38954e+01  1.88166e+01
       H -2.62452e+01 -2.48229e+01  1.89429e+01
       H -2.64385e+01 -2.37422e+01  1.78996e+01
       O -1.76580e+01 -2.35279e+01 -7.22881e+00
       H -1.67621e+01 -2.39198e+01 -6.91642e+00
       H -1.73930e+01 -2.30308e+01 -7.99173e+00
       O  2.44527e+00 -3.94806e+00 -3.25383e+01
       H  2.21035e+00 -4.89667e+00 -3.24103e+01
       H  1.69785e+00 -3.38972e+00 -3.22814e+01
       O -9.87243e+00  5.37709e+00 -1.13371e+01
       H -8.99995e+00  5.57984e+00 -1.18001e+01
       H -9.94845e+00  6.18148e+00 -1.07602e+01
       O -5.19475e+00 -2.39360e+01 -1.55776e+01
       H -5.04855e+00 -2.37989e+01 -1.64918e+01
       H -4.34747e+00 -2.37669e+01 -1.51446e+01
       O  1.32238e+01 -1.98361e+01 -1.02448e+01
       H  1.41533e+01 -1.95058e+01 -1.03369e+01
       H  1.27318e+01 -1.89708e+01 -1.01626e+01
       O -1.18360e+01 -3.24598e+00 -3.67756e+01
       H -1.10789e+01 -2.61382e+00  1.08421e+01
       H -1.14575e+01 -4.04873e+00 -3.65136e+01
       O  1.42035e+01 -2.57388e+01 -1.51998e+01
       H  1.45101e+01 -2.48797e+01 -1.53575e+01
       H  1.50490e+01 -2.62144e+01 -1.50090e+01
       O -1.93949e+01 -9.11663e+00 -2.29712e+01
       H -1.99447e+01 -8.36748e+00 -2.27124e+01
       H -1.99469e+01 -9.90089e+00 -2.29326e+01
       O -2.40528e+01 -2.50659e+01 -1.41483e+01
       H -2.35172e+01 -2.58169e+01 -1.40467e+01
       H -2.46858e+01 -2.52183e+01 -1.35056e+01
       O -2.04953e+00 -1.45201e+01  9.95763e+00
       H -2.73771e+00 -1.48591e+01  1.05630e+01
       H -1.77117e+00 -1.53464e+01  9.49127e+00
       O -1.48287e+01 -1.52681e+01  1.96979e+00
       H -1.40495e+01 -1.51683e+01  2.55566e+00
       H -1.53342e+01 -1.59054e+01  2.45332e+00
       O  6.32185e+00 -1.39864e+01 -1.15479e+01
       H  5.74585e+00 -1.38722e+01 -1.07812e+01
       H  5.96852e+00 -1.48821e+01 -1.18067e+01
       O  7.55950e+00 -6.95072e+00 -1.51102e+01
       H  8.12985e+00 -7.53642e+00 -1.56016e+01
       H  7.49565e+00 -7.38173e+00 -1.42192e+01
       O -2.14547e+01  1.37598e+00 -1.17990e+01
       H -2.05704e+01  1.83498e+00 -1.20711e+01
       H -2.16471e+01  8.13161e-01 -1.26313e+01
       O -1.47884e+01 -7.62762e+00 -2.32655e+01
       H -1.44220e+01 -7.16302e+00 -2.40243e+01
       H -1.49568e+01 -8.49806e+00 -2.36497e+01
       O -1.66749e+01 -9.92750e+00 -2.10489e+01
       H -1.67631e+01 -9.97855e+00 -2.20415e+01
       H -1.70652e+01 -1.08526e+01 -2.09388e+01
       O -9.76245e+00 -1.21955e+01 -2.39939e+01
       H -9.82729e+00 -1.31947e+01 -2.41446e+01
       H -1.00389e+01 -1.20176e+01 -2.30398e+01
       O -1.11912e+01 -1.69577e+00 -9.01425e+00
       H -1.16947e+01 -1.33062e+00 -8.28649e+00
       H -1.13871e+01 -2.65952e+00 -8.98953e+00
       O  6.23188e+00 -8.57345e+00 -1.94535e+01
       H  5.85186e+00 -7.72946e+00 -1.90207e+01
       H  5.62166e+00 -9.27497e+00 -1.91371e+01
       O -1.34087e+01 -1.09333e+01  2.60265e+00
       H -1.39807e+01 -1.07165e+01  1.90436e+00
       H -1.40149e+01 -1.14106e+01  3.22025e+00
       O -1.88680e+01 -5.36347e+00  1.97129e+00
       H -1.84463e+01 -6.11331e+00  1.50511e+00
       H -1.98026e+01 -5.60923e+00  1.84979e+00
       O -3.44335e+00 -1.63754e+01 -2.06297e+01
       H -3.50081e+00 -1.69996e+01 -1.98753e+01
       H -4.17665e+00 -1.66831e+01 -2.11859e+01
       O -5.43230e+00 -2.01454e+01 -1.21510e+01
       H -5.81252e+00 -2.09654e+01 -1.23824e+01
       H -6.05083e+00 -1.94478e+01 -1.24051e+01
       O  1.55115e-01  2.79052e+01  6.09720e+00
       H -2.16801e-01  2.86652e+01  6.64706e+00
       H  1.10839e+00  2.81325e+01  6.20517e+00
       O -9.28660e+00 -3.47994e+00 -3.05769e+01
       H -8.59817e+00 -3.17822e+00 -2.99810e+01
       H -9.94763e+00 -3.06516e+00 -3.00391e+01
       O -7.30894e+00  2.43655e+01  4.48265e+00
       H -8.02219e+00  2.47325e+01  5.00872e+00
       H -7.12004e+00  2.51273e+01  3.88897e+00
       O -4.24053e+00 -1.28158e+01 -1.01903e+01
       H -3.31619e+00 -1.25465e+01 -1.05037e+01
       H -4.04194e+00 -1.37737e+01 -1.00838e+01
       O  2.06690e+00 -1.08777e+01 -1.53740e+00
       H  2.77734e+00 -1.12232e+01 -2.14320e+00
       H  2.35813e+00 -9.96853e+00 -1.32047e+00
       O -1.44250e+00 -9.76244e+00  4.99906e+00
       H -2.07509e+00 -1.01861e+01  4.38749e+00
       H -1.93955e+00 -8.94252e+00  5.22645e+00
       O -1.69771e+01 -8.14347e-01  1.56141e+01
       H -1.72591e+01 -1.72001e+00  1.53160e+01
       H -1.67009e+01 -4.14800e-01  1.47667e+01
       O -1.81340e+01 -9.05499e+00 -1.10686e+01
       H -1.85940e+01 -9.24534e+00 -1.19357e+01
       H -1.72150e+01 -9.20445e+00 -1.12587e+01
       O  4.13095e+00 -1.15838e+01 -8.37020e+00
       H  4.13640e+00 -1.08116e+01 -7.67638e+00
       H  4.97690e+00 -1.19616e+01 -8.29079e+00
       O -1.31416e+01 -2.19211e+01 -1.01931e+01
       H -1.28626e+01 -2.27996e+01 -1.01673e+01
       H -1.38673e+01 -2.20848e+01 -1.08153e+01
       O -3.43997e+01 -2.31393e+01  2.32801e+01
       H -3.37525e+01 -2.38601e+01  2.33631e+01
       H -3.39502e+01 -2.26813e+01  2.25444e+01
       O  2.08805e+01  2.73080e+01  2.44901e+01
       H  2.14482e+01  2.79649e+01  2.41149e+01
       H  2.00211e+01  2.78024e+01  2.45392e+01
       O -1.59595e+00 -1.19974e+01 -1.10798e+01
       H -1.05092e+00 -1.19390e+01 -1.02289e+01
       H -1.67564e+00 -1.29588e+01 -1.11769e+01
       O -1.00692e+01 -1.47947e+01 -1.33211e+01
       H -1.07585e+01 -1.41983e+01 -1.29493e+01
       H -1.00512e+01 -1.43947e+01 -1.42060e+01
       O -1.78500e+01 -2.52466e+00  6.26350e+00
       H -1.75534e+01 -3.24249e+00  5.60211e+00
       H -1.86741e+01 -2.25710e+00  5.75810e+00
       O -1.33563e+01 -1.92244e+01 -2.77172e+01
       H -1.41356e+01 -1.96397e+01 -2.82427e+01
       H -1.37099e+01 -1.93155e+01 -2.67881e+01
       O -1.74098e+01 -1.55326e+01 -2.27808e+01
       H -1.79830e+01 -1.57676e+01 -2.35517e+01
       H -1.65916e+01 -1.60019e+01 -2.29826e+01
       O -4.60367e+00 -9.34001e+00 -1.48211e+01
       H -4.70274e+00 -9.80364e+00 -1.39526e+01
       H -3.95439e+00 -8.59111e+00 -1.46724e+01
       O -1.60286e+01 -1.30210e+01 -1.74123e+01
       H -1.61444e+01 -1.20506e+01 -1.72417e+01
       H -1.52930e+01 -1.29716e+01 -1.80183e+01
       O -1.53053e+01 -2.02952e+01 -1.32370e+01
       H -1.50837e+01 -1.97826e+01 -1.24454e+01
       H -1.51079e+01 -2.12346e+01 -1.29130e+01
       O -1.20533e+01 -1.86795e+01 -1.29999e+01
       H -1.28557e+01 -1.86098e+01 -1.24580e+01
       H -1.24097e+01 -1.83546e+01 -1.38612e+01
       O -8.56856e+00 -1.63623e+01 -1.11282e+01
       H -7.91137e+00 -1.62435e+01 -1.03390e+01
       H -8.64721e+00 -1.54453e+01 -1.14451e+01
       O  2.10998e+01 -1.30674e+01 -1.06891e+01
       H  2.01856e+01 -1.33382e+01 -1.10743e+01
       H  2.15302e+01 -1.39147e+01 -1.06059e+01
       O -5.69031e+00 -2.82918e+01 -2.60852e+00
       H -5.16293e+00 -2.80269e+01 -3.38630e+00
       H -5.94744e+00 -2.73214e+01 -2.30497e+00
       O -1.73516e+01 -2.35299e+01  8.78559e+00
       H -1.74456e+01 -2.44640e+01  9.03768e+00
       H -1.70231e+01 -2.31664e+01  9.63884e+00
       O -1.24596e+01 -1.04011e+01 -1.58610e+00
       H -1.22796e+01 -1.13814e+01 -1.52881e+00
       H -1.26914e+01 -1.03970e+01 -2.54529e+00
       O -1.52209e+01  2.16977e+00 -1.81711e+01
       H -1.53166e+01  3.06296e+00 -1.79183e+01
       H -1.61004e+01  1.88840e+00 -1.85382e+01
       O  2.90405e+01 -1.41960e+01  3.04653e+00
       H  2.82585e+01 -1.40531e+01  2.45756e+00
       H  2.92606e+01 -1.50723e+01  2.69805e+00
       O  1.23590e+01 -1.55561e+01 -2.35034e+01
       H  1.32876e+01 -1.59013e+01 -2.34185e+01
       H  1.22943e+01 -1.52920e+01 -2.44547e+01
       O  6.44102e+00 -2.43266e+01 -2.48026e+00
       H  5.79259e+00 -2.35844e+01 -2.22822e+00
       H  6.33239e+00 -2.43954e+01 -3.47551e+00
       O -2.12396e+01 -1.49172e+01 -1.91913e+01
       H -2.05175e+01 -1.42860e+01 -1.88692e+01
       H -2.11558e+01 -1.49511e+01 -2.01500e+01
       O -2.54375e+00 -8.07975e+00 -1.15587e+01
       H -2.74038e+00 -8.01871e+00 -1.24832e+01
       H -1.59981e+00 -8.35293e+00 -1.16599e+01
       O -1.02512e-01 -6.33039e+00 -1.00492e+01
       H -9.45566e-02 -6.95398e+00 -1.08508e+01
       H -3.17989e-01 -5.51135e+00 -1.05897e+01
       O -7.79696e+00 -5.29577e+00 -6.02992e-02
       H -7.84644e+00 -4.31541e+00 -3.00470e-01
       H -8.51915e+00 -5.65596e+00 -5.73959e-01
       O -1.01995e+01  1.22982e+01 -1.03603e+01
       H -1.01924e+01  1.21039e+01 -1.12981e+01
       H -9.27792e+00  1.25652e+01 -1.02213e+01
       O -7.97458e-01 -8.34754e+00 -2.65125e+01
       H -6.25934e-01 -8.74380e+00 -2.73127e+01
       H -1.02231e+00 -9.08956e+00 -2.59764e+01
       O -2.49260e+01 -1.05718e+01  2.44168e+01
       H -2.57761e+01 -1.04851e+01  2.48953e+01
       H -2.45490e+01 -9.65430e+00  2.45533e+01
       O  2.03441e+01 -1.50067e+01  3.91024e+01
       H  2.06490e+01 -1.53939e+01  3.82429e+01
       H  2.12251e+01 -1.46827e+01  3.94761e+01
       O -9.94215e+00 -8.27975e+00 -1.79008e+01
       H -1.01268e+01 -7.97682e+00 -1.87529e+01
       H -1.04459e+01 -9.08259e+00 -1.79287e+01
       O -1.78862e+01 -1.23083e+01 -2.06145e+01
       H -1.81509e+01 -1.29340e+01 -1.98780e+01
       H -1.74794e+01 -1.29244e+01 -2.12145e+01
       O -2.52467e+01 -6.78409e+00  2.97045e+01
       H -2.53487e+01 -7.72989e+00  2.99324e+01
       H -2.57315e+01 -6.66972e+00  2.88616e+01
       O -1.27526e+01 -1.47761e+01 -2.48689e+01
       H -1.34058e+01 -1.52572e+01 -2.53443e+01
       H -1.26243e+01 -1.40414e+01 -2.54613e+01
       O -1.00808e+01 -1.56098e+01 -2.00027e+01
       H -1.05303e+01 -1.60623e+01 -2.08197e+01
       H -9.43198e+00 -1.51526e+01 -2.05722e+01
       O -8.52699e+00  1.81474e+01 -2.37998e+00
       H -8.01635e+00  1.87018e+01 -1.67287e+00
       H -7.85835e+00  1.79405e+01 -2.95953e+00
       O -1.34898e+01 -2.90035e+00 -4.15928e+00
       H -1.38322e+01 -2.51190e+00 -3.28232e+00
       H -1.39387e+01 -2.26101e+00 -4.73992e+00
       O -1.09783e+01 -7.78138e+00  5.89281e-01
       H -1.19257e+01 -7.77376e+00  3.57975e-01
       H -1.05830e+01 -7.65596e+00 -3.10458e-01
       O -4.85530e+00 -2.34752e+01 -2.85048e+01
       H -5.77907e+00 -2.34427e+01 -2.88708e+01
       H -4.79084e+00 -2.27497e+01 -2.78711e+01
       O  1.20310e+01 -7.51851e-01 -1.24587e+01
       H  1.12876e+01 -3.42155e-01 -1.27712e+01
       H  1.21220e+01 -1.56132e+00 -1.29703e+01
       O -1.12117e+01 -2.82626e+00  1.84417e+01
       H -1.13706e+01 -3.22057e+00  1.93214e+01
       H -1.21323e+01 -2.80195e+00  1.80553e+01
       O  2.73426e+01 -2.05636e+01  1.92802e+01
       H  2.80456e+01 -2.03104e+01  1.86928e+01
       H  2.65641e+01 -2.01735e+01  1.89026e+01
       O -2.53871e+01 -1.38452e+01  1.12704e+01
       H -2.56570e+01 -1.29502e+01  1.08612e+01
       H -2.46860e+01 -1.36647e+01  1.19438e+01
       O -1.20868e+01  2.33086e+01 -9.51542e+00
       H -1.17540e+01  2.23828e+01 -9.69118e+00
       H -1.17013e+01  2.34221e+01 -8.63375e+00
       O -1.89015e+01 -9.25442e+00  1.76049e+01
       H -1.94773e+01 -9.31583e+00  1.84312e+01
       H -1.95333e+01 -8.57342e+00  1.72254e+01
       O  2.13580e+01 -2.51385e+01  1.32805e+01
       H  2.11974e+01 -2.41544e+01  1.31568e+01
       H  2.20450e+01 -2.50034e+01  1.39754e+01
       O  1.03619e+01 -3.06958e+01 -1.61875e+01
       H  9.53334e+00 -3.12218e+01 -1.62190e+01
       H  1.01708e+01 -2.98199e+01 -1.58328e+01
       O -6.88219e+00 -1.64869e+01 -4.35462e-01
       H -7.51736e+00 -1.65239e+01 -1.18940e+00
       H -6.93150e+00 -1.55495e+01 -3.57811e-01
       O  1.03220e+01 -1.63154e+01 -4.60141e-01
       H  1.10944e+01 -1.63295e+01 -1.05904e+00
       H  1.07549e+01 -1.58559e+01  2.71495e-01
       O -7.42797e+00  1.98905e+01 -2.31815e+01
       H -8.08308e+00  1.94528e+01  2.37023e+01
       H -7.32664e+00  1.92325e+01  2.50050e+01
       O  1.81836e+01 -1.91080e+01  2.43653e+01
       H  1.80623e+01 -1.86140e+01 -2.39871e+01
       H  1.74642e+01 -1.98423e+01 -2.31369e+01
       O -1.24122e+00  1.46420e+01  2.63685e+00
       H -5.06011e-01  1.40625e+01  2.51991e+00
       H -1.08425e+00  1.53892e+01  1.94725e+00
       O -1.25906e+01  2.22871e+01  1.77856e+01
       H -1.35699e+01  2.22959e+01  1.79211e+01
       H -1.23097e+01  2.16822e+01  1.85601e+01
       O  2.49251e+01 -9.14731e+00  4.05079e+01
       H  2.49981e+01 -9.58357e+00  3.95888e+01
       H  2.55967e+01 -8.45753e+00  4.04270e+01
       O  1.85812e+01 -9.97645e+00 -1.73261e+01
       H  1.78579e+01 -9.41773e+00 -1.69299e+01
       H  1.82606e+01 -1.08158e+01 -1.69653e+01
       O -4.65831e+00 -1.27465e+01 -1.74122e+01
       H -5.14311e+00 -1.19087e+01 -1.73760e+01
       H -5.33941e+00 -1.33525e+01 -1.76092e+01
       O -7.24365e+00 -1.18286e+01  2.25285e+00
       H -7.55860e+00  3.53410e+01  3.12255e+00
       H -7.68261e+00 -1.10095e+01  2.27338e+00
       O  2.74166e+01 -4.46833e+00  2.35908e+01
       H  2.72340e+01 -4.51522e+00  2.26515e+01
       H  2.73644e+01 -3.47612e+00  2.38082e+01
       O -2.37260e+01  6.49874e+00 -4.30565e+00
       H -2.40638e+01  7.41796e+00 -4.31330e+00
       H -2.28819e+01  6.62400e+00 -4.72759e+00
       O  1.86792e+01 -7.09787e+00 -1.28518e+01
       H  1.91070e+01 -7.57528e+00 -1.36277e+01
       H  1.93080e+01 -7.52966e+00 -1.21672e+01
       O -1.15456e+01 -1.04262e+01  2.83940e+01
       H -1.16255e+01 -1.10646e+01  2.91543e+01
       H -1.24862e+01 -1.03599e+01  2.80294e+01
       O -1.66668e+01 -1.29495e+01  8.77518e-01
       H -1.74998e+01 -1.33944e+01  6.85557e-01
       H -1.61768e+01 -1.36152e+01  1.37354e+00
       O  9.75360e-01 -2.27308e+01 -1.36081e+01
       H  1.70761e+00 -2.28673e+01 -1.29398e+01
       H  6.48441e-01 -2.18758e+01 -1.34171e+01
       O -2.06677e+01 -7.14007e+00 -1.02456e+01
       H -2.02453e+01 -6.39465e+00 -1.07627e+01
       H -2.02383e+01 -8.00153e+00 -1.04387e+01
       O -1.78700e+01 -2.02687e+01  2.35355e+01
       H -1.78908e+01 -2.09197e+01  2.28139e+01
       H -1.87632e+01 -2.04083e+01  2.38678e+01
       O  4.55539e+00 -3.12857e+01 -3.56334e-01
       H  4.25070e+00 -3.16840e+01  4.81631e-01
       H  5.50606e+00 -3.13379e+01 -5.16487e-02
       O -1.36217e+01 -1.50676e+01  1.83581e+01
       H -1.45924e+01 -1.53887e+01  1.85632e+01
       H -1.37350e+01 -1.42200e+01  1.88239e+01
       O  4.30498e+00 -7.96561e+00 -1.26589e+01
       H  4.29677e+00 -8.40410e+00 -1.35615e+01
       H  4.78529e+00 -8.69799e+00 -1.21812e+01
       O -1.21503e+01 -1.12218e+01 -1.45402e+01
       H -1.29405e+01 -1.07293e+01 -1.43042e+01
       H -1.20819e+01 -1.17480e+01 -1.37481e+01
       O  1.88478e+01 -2.57762e+01 -1.19432e+01
       H  1.90388e+01 -2.58611e+01 -1.28922e+01
       H  1.93115e+01 -2.49519e+01 -1.16279e+01
       O -6.30129e+00 -1.87037e+01 -8.50577e+00
       H -7.04999e+00 -1.91149e+01 -9.04682e+00
       H -6.48183e+00 -1.77413e+01 -8.51619e+00
       O -1.77876e+01 -1.37868e+01 -1.56679e+01
       H -1.77949e+01 -1.30147e+01 -1.50651e+01
       H -1.69898e+01 -1.35644e+01 -1.62769e+01
       O  3.03559e-01 -2.47176e+01 -2.84065e+01
       H  7.61192e-01 -2.43897e+01 -2.75592e+01
       H -1.15660e-01 -2.55832e+01 -2.81722e+01
       O  1.68790e+01 -2.27759e+01 -2.16585e+01
       H  1.77446e+01 -2.32856e+01 -2.15969e+01
       H  1.63327e+01 -2.35073e+01 -2.20820e+01
       O  1.63383e+01  2.47730e+01  1.42359e+01
       H  1.63684e+01  2.46903e+01  1.51448e+01
       H  1.60844e+01  2.57431e+01  1.40944e+01
       O -9.10242e+00 -1.56235e+00 -1.08244e+01
       H -9.63784e+00 -1.81286e+00 -1.15778e+01
       H -9.75153e+00 -1.40100e+00 -1.01061e+01
       O  6.01648e-01 -3.78796e+01 -4.26473e+00
       H -1.47659e-01  1.01636e+01 -4.23378e+00
       H  7.76006e-01 -3.77838e+01 -5.19441e+00
       O -6.74582e+00 -1.56120e+01 -2.47972e+01
       H -7.24982e+00 -1.50266e+01 -2.54098e+01
       H -7.03848e+00 -1.53396e+01 -2.38763e+01
       O -1.43700e+01 -3.65639e+01  6.30906e+00
       H -1.47903e+01 -3.57238e+01  6.06491e+00
       H -1.34986e+01 -3.63994e+01  6.68821e+00
       O -2.25147e-01  6.10524e+00 -7.68005e-02
       H -1.49090e-01  6.75405e+00 -8.05371e-01
       H  5.48595e-01  5.63031e+00 -1.46933e-02
       O -2.10317e+01 -6.97787e+00 -5.03889e+00
       H -2.12718e+01 -6.92387e+00 -5.97713e+00
       H -2.16010e+01 -6.28287e+00 -4.61358e+00
       O  2.91713e+01 -1.40148e+01  1.31812e+01
       H  2.84488e+01 -1.34059e+01  1.33983e+01
       H  2.86951e+01 -1.49017e+01  1.31838e+01
       O -5.42515e+00 -1.47680e+01  4.01738e+00
       H -5.49909e+00 -1.55088e+01  3.38466e+00
       H -4.57146e+00 -1.49593e+01  4.42119e+00
       O  1.31432e+01 -1.81847e+01 -3.83710e+00
       H  1.37114e+01 -1.88355e+01 -4.39133e+00
       H  1.23205e+01  2.93248e+01 -4.34243e+00
       O -1.29640e+01  2.14303e+01  2.84481e+00
       H -1.24984e+01  2.10312e+01  2.01732e+00
       H -1.32221e+01  2.23208e+01  2.46095e+00
       O -3.25275e+00 -7.04200e+00 -2.60240e+01
       H -2.29993e+00 -7.29756e+00 -2.61666e+01
       H -3.66000e+00 -7.70367e+00 -2.53707e+01
       O  2.55579e+01 -1.99058e+01  2.18185e+01
       H  2.64011e+01 -1.94581e+01  2.16136e+01
       H  2.52426e+01 -1.93761e+01  2.25603e+01
       O  7.40733e+00  4.88651e+00 -1.90663e+00
       H  6.58626e+00  5.33875e+00 -2.15878e+00
       H  7.99720e+00  5.68206e+00 -1.92276e+00
       O  1.48713e+01 -1.35330e+01 -2.65988e+01
       H  1.47511e+01 -1.37786e+01 -2.56305e+01
       H  1.39865e+01 -1.37604e+01 -2.69310e+01
       O -9.01686e+00  2.70072e+01 -5.67585e+00
       H -9.69935e+00  2.69016e+01 -6.35106e+00
       H -9.54349e+00  2.76032e+01 -5.19056e+00
       O -4.29582e+00 -1.88737e+01 -2.19488e+01
       H -4.58892e+00 -1.92718e+01 -2.28047e+01
       H -3.34180e+00 -1.91029e+01 -2.20810e+01
       O  4.24821e+00 -4.01256e+00 -2.07807e+01
       H  4.32468e+00 -4.44956e+00 -1.99180e+01
       H  3.63373e+00 -4.67992e+00 -2.11466e+01
       O -5.47318e+00 -5.22586e+00  1.46370e+01
       H -5.60522e+00 -6.17371e+00  1.46811e+01
       H -6.03219e+00 -4.89888e+00  1.54667e+01
       O -9.88683e+00 -1.99964e+01 -2.65142e+01
       H -9.89145e+00 -1.94959e+01 -2.57218e+01
       H -8.93134e+00 -2.02523e+01 -2.65449e+01
       O  1.45433e+01 -3.81017e+00 -2.68261e+01
       H  1.43287e+01 -3.89976e+00 -2.58801e+01
       H  1.51875e+01 -4.47329e+00 -2.69340e+01
       O -1.20012e+01 -4.26636e+00  2.08291e+01
       H -1.28033e+01 -3.81996e+00  2.09060e+01
       H -1.22742e+01 -5.09907e+00  2.11806e+01
       O -8.68485e+00 -1.97365e+01 -9.58748e+00
       H -8.67531e+00 -2.04038e+01 -1.02746e+01
       H -9.42546e+00 -1.91883e+01 -9.76861e+00
       O -2.22326e+01 -1.18515e+01  2.74465e+01
       H -2.27852e+01 -1.10676e+01  2.73321e+01
       H -2.14619e+01 -1.13496e+01  2.77313e+01
       O  6.02545e+00 -9.73093e+00 -9.85554e+00
       H  5.56762e+00 -9.11318e+00 -9.30204e+00
       H  5.16927e+00 -1.02306e+01 -1.00930e+01
       O -6.01957e+00  2.36880e+00 -9.79560e+00
       H -6.39731e+00  3.22567e+00 -9.58939e+00
       H -5.27690e+00  2.34609e+00 -9.12555e+00
       O -3.74932e+00  6.23118e-01 -3.20125e+01
       H -3.83237e+00  1.40124e+00 -3.13445e+01
       H -3.45220e+00 -1.33258e-01 -3.14455e+01
       O -2.54795e+00 -1.54692e+01 -1.42785e+01
       H -2.49329e+00 -1.44859e+01 -1.44936e+01
       H -3.48300e+00 -1.56976e+01 -1.40827e+01
       O -4.22290e+00 -8.13170e+00 -2.37179e+01
       H -4.71048e+00 -8.16721e+00 -2.28983e+01
       H -3.36651e+00 -7.89268e+00 -2.33838e+01
       O -3.22296e+00 -1.01066e+01 -1.84881e+01
       H -3.47232e+00 -1.10217e+01 -1.86794e+01
       H -2.43209e+00 -1.01043e+01 -1.79221e+01
       O -8.97418e+00  2.42682e+01 -9.60469e+00
       H -9.50544e+00  2.49720e+01 -1.00143e+01
       H -9.51738e+00  2.40034e+01 -8.82564e+00
       O -3.01183e+00 -2.08681e+01 -6.16019e+00
       H -2.07847e+00 -2.11638e+01 -6.26796e+00
       H -3.01309e+00 -2.04261e+01 -5.26816e+00
       O -2.52030e+00  1.14674e+01 -8.19902e+00
       H -2.57111e+00  1.06402e+01 -8.68911e+00
       H -3.47653e+00  1.16342e+01 -7.99828e+00
       O -6.80635e+00 -2.03948e+01 -2.16221e+01
       H -6.78669e+00 -1.95425e+01 -2.12524e+01
       H -6.66188e+00 -2.02104e+01 -2.25785e+01
       O -2.37670e+01 -1.85150e+01 -1.52032e+01
       H -2.33277e+01 -1.91567e+01 -1.58830e+01
       H -2.31615e+01 -1.77871e+01 -1.52731e+01
       O -1.41205e+01 -2.07743e+01 -1.57921e+01
       H -1.46231e+01 -2.04808e+01 -1.50446e+01
       H -1.43921e+01 -2.01100e+01 -1.64969e+01
       O  1.48760e+01  2.28845e+01 -1.14826e+01
       H  1.47839e+01  2.28345e+01 -1.05038e+01
       H  1.47385e+01  2.38789e+01 -1.17185e+01
       O -7.98031e+00  2.27173e+01 -2.30388e+01
       H -7.24803e+00  2.21296e+01 -2.28150e+01
       H -8.51692e+00  2.22445e+01 -2.36988e+01
       O  2.38705e+01 -2.88248e+01  1.74882e+01
       H  2.40664e+01 -2.84313e+01  1.83431e+01
       H  2.38763e+01 -2.80693e+01  1.68934e+01
       O -1.62876e+00 -8.20444e+00 -2.26726e+01
       H -6.82604e-01 -8.45844e+00 -2.26353e+01
       H -1.70836e+00 -7.31988e+00 -2.21619e+01
       O  1.47730e+01  3.03193e+01 -7.12114e+00
       H  1.56307e+01  3.08108e+01 -7.35180e+00
       H  1.51990e+01  2.94614e+01 -6.95775e+00
       O -1.91896e+01 -1.04196e+01 -6.23321e+00
       H -1.86773e+01 -1.01281e+01 -7.02953e+00
       H -1.93230e+01 -1.13331e+01 -6.39362e+00
       O -2.88174e+01  1.05798e+00 -8.62548e-01
       H -2.83794e+01  1.23397e+00  2.32270e-02
       H -2.80195e+01  8.84945e-01 -1.41133e+00
       O -9.25096e+00 -8.96566e+00 -1.35411e+01
       H -8.72837e+00 -9.60669e+00 -1.29460e+01
       H -8.67910e+00 -8.81389e+00 -1.43369e+01
       O -8.75980e+00  1.09045e+01  1.50188e+01
       H -8.45535e+00  1.00744e+01  1.53426e+01
       H -9.57254e+00  1.06834e+01  1.45085e+01
       O  6.17671e+00  2.28235e+01 -5.06247e+00
       H  5.79845e+00 -2.39368e+01 -5.61124e+00
       H  6.21787e+00  2.20770e+01 -5.73716e+00
       O -1.95643e+01 -1.29749e+01 -7.10905e+00
       H -1.91692e+01 -1.26487e+01 -7.87925e+00
       H -1.96253e+01 -1.40170e+01 -7.28253e+00
       O -2.11866e+01  1.53613e+01 -1.43925e+01
       H -2.12564e+01  1.58640e+01 -1.52461e+01
       H -2.03663e+01  1.49114e+01 -1.44443e+01
       O -1.79676e+01 -1.23272e+01 -9.25947e+00
       H -1.76028e+01 -1.26437e+01 -1.00895e+01
       H -1.75863e+01 -1.14250e+01 -9.02828e+00
       O -7.83610e+00 -8.34600e+00 -1.59759e+01
       H -8.66496e+00 -8.32438e+00 -1.64053e+01
       H -7.31540e+00 -8.93546e+00 -1.63940e+01
       O -7.03066e+00 -1.54550e+01 -2.20162e+01
       H -7.39122e+00 -1.46018e+01 -2.17864e+01
       H -6.75072e+00 -1.58195e+01 -2.11507e+01
       O -6.25439e+00 -2.55334e+01 -1.86693e+01
       H -5.69548e+00 -2.48347e+01 -1.90503e+01
       H -5.61128e+00 -2.60148e+01 -1.80893e+01
       O  1.64187e+01 -1.08859e+01 -1.27413e+01
       H  1.55527e+01 -1.12671e+01 -1.29618e+01
       H  1.66400e+01 -1.01789e+01 -1.33680e+01
       O -8.95735e+00 -6.15412e+00 -2.43435e+01
       H -8.05423e+00 -6.10950e+00 -2.40174e+01
       H -9.13824e+00 -5.18576e+00 -2.42669e+01
       O -2.95231e+01 -7.20624e+00 -1.84162e+01
       H -2.95167e+01 -6.26460e+00 -1.80924e+01
       H -2.97910e+01 -7.64995e+00 -1.76248e+01
       O -7.12863e+00 -9.88322e+00 -4.27204e+00
       H -7.10192e+00 -9.13515e+00 -4.88342e+00