4
# CELL(abcABC): 1000.00000  1000.00000  1000.00000    90.00000    90.00000    90.00000  Step:           0  Bead:       0 positions{angstrom}  cell{angstrom}
       O -3.14712e+00  1.07627e+00  3.54122e-01
       H -2.59771e+00  9.18917e-01 -4.51791e-01
       H -2.54350e+00  1.18618e+00  1.05803e+00
       H -4.28921e+00  8.81455e-01  4.58310e-01
4
# CELL(abcABC): 1000.00000  1000.00000  1000.00000    90.00000    90.00000    90.00000  Step:           1  Bead:       0 positions{angstrom}  cell{angstrom}
       O -3.14545e+00  1.07646e+00  3.53415e-01
       H -2.60893e+00  9.12506e-01 -4.45701e-01
       H -2.54253e+00  1.18597e+00  1.05991e+00
       H -4.30549e+00  8.85103e-01  4.61559e-01
4
# CELL(abcABC): 1000.00000  1000.00000  1000.00000    90.00000    90.00000    90.00000  Step:           2  Bead:       0 positions{angstrom}  cell{angstrom}
       O -3.14395e+00  1.07644e+00  3.52464e-01
       H -2.62249e+00  9.07702e-01 -4.36429e-01
       H -2.53841e+00  1.18663e+00  1.06298e+00
       H -4.31982e+00  8.89556e-01  4.64316e-01
4
# CELL(abcABC): 1000.00000  1000.00000  1000.00000    90.00000    90.00000    90.00000  Step:           3  Bead:       0 positions{angstrom}  cell{angstrom}
       O -3.14256e+00  1.07630e+00  3.51347e-01
       H -2.63650e+00  9.02784e-01 -4.24268e-01
       H -2.53346e+00  1.18925e+00  1.06728e+00
       H -4.33286e+00  8.94115e-01  4.65578e-01
4
# CELL(abcABC): 1000.00000  1000.00000  1000.00000    90.00000    90.00000    90.00000  Step:           4  Bead:       0 positions{angstrom}  cell{angstrom}
       O -3.14140e+00  1.07609e+00  3.50416e-01
       H -2.65023e+00  8.97210e-01 -4.14173e-01
       H -2.52738e+00  1.19335e+00  1.07094e+00
       H -4.34364e+00  8.98838e-01  4.66606e-01
4
# CELL(abcABC): 1000.00000  1000.00000  1000.00000    90.00000    90.00000    90.00000  Step:           5  Bead:       0 positions{angstrom}  cell{angstrom}
       O -3.14040e+00  1.07571e+00  3.49820e-01
       H -2.66281e+00  8.91621e-01 -4.07377e-01
       H -2.52210e+00  1.19938e+00  1.07463e+00
       H -4.35212e+00  9.04467e-01  4.65586e-01
4
# CELL(abcABC): 1000.00000  1000.00000  1000.00000    90.00000    90.00000    90.00000  Step:           6  Bead:       0 positions{angstrom}  cell{angstrom}
       O -3.13961e+00  1.07538e+00  3.49714e-01
       H -2.67223e+00  8.85746e-01 -4.06256e-01
       H -2.51816e+00  1.20447e+00  1.07562e+00
       H -4.35931e+00  9.10437e-01  4.65162e-01
4
# CELL(abcABC): 1000.00000  1000.00000  1000.00000    90.00000    90.00000    90.00000  Step:           7  Bead:       0 positions{angstrom}  cell{angstrom}
       O -3.13918e+00  1.07496e+00  3.49938e-01
       H -2.67653e+00  8.79054e-01 -4.09299e-01
       H -2.51539e+00  1.20971e+00  1.07533e+00
       H -4.36449e+00  9.18577e-01  4.64937e-01
4
# CELL(abcABC): 1000.00000  1000.00000  1000.00000    90.00000    90.00000    90.00000  Step:           8  Bead:       0 positions{angstrom}  cell{angstrom}
       O -3.13916e+00  1.07456e+00  3.50721e-01
       H -2.67626e+00  8.71548e-01 -4.18107e-01
       H -2.51271e+00  1.21435e+00  1.07217e+00
       H -4.36775e+00  9.27785e-01  4.64473e-01
4
# CELL(abcABC): 1000.00000  1000.00000  1000.00000    90.00000    90.00000    90.00000  Step:           9  Bead:       0 positions{angstrom}  cell{angstrom}
       O -3.13945e+00  1.07424e+00  3.51768e-01
       H -2.67317e+00  8.62693e-01 -4.29375e-01
       H -2.51002e+00  1.21931e+00  1.06750e+00
       H -4.36893e+00  9.36757e-01  4.63787e-01
4
# CELL(abcABC): 1000.00000  1000.00000  1000.00000    90.00000    90.00000    90.00000  Step:          10  Bead:       0 positions{angstrom}  cell{angstrom}
       O -3.13995e+00  1.07382e+00  3.53179e-01
       H -2.66820e+00  8.53772e-01 -4.43005e-01
       H -2.50802e+00  1.22503e+00  1.06024e+00
       H -4.36803e+00  9.46676e-01  4.62274e-01
4
# CELL(abcABC): 1000.00000  1000.00000  1000.00000    90.00000    90.00000    90.00000  Step:          11  Bead:       0 positions{angstrom}  cell{angstrom}
       O -3.14058e+00  1.07334e+00  3.54799e-01
       H -2.66244e+00  8.46114e-01 -4.57354e-01
       H -2.50788e+00  1.23050e+00  1.05120e+00
       H -4.36395e+00  9.56524e-01  4.59960e-01
4
# CELL(abcABC): 1000.00000  1000.00000  1000.00000    90.00000    90.00000    90.00000  Step:          12  Bead:       0 positions{angstrom}  cell{angstrom}
       O -3.14144e+00  1.07281e+00  3.56380e-01
       H -2.65594e+00  8.39428e-01 -4.69399e-01
       H -2.50790e+00  1.23484e+00  1.04050e+00
       H -4.35672e+00  9.67276e-01  4.57599e-01
4
# CELL(abcABC): 1000.00000  1000.00000  1000.00000    90.00000    90.00000    90.00000  Step:          13  Bead:       0 positions{angstrom}  cell{angstrom}
       O -3.14245e+00  1.07215e+00  3.57665e-01
       H -2.65090e+00  8.34975e-01 -4.76926e-01
       H -2.50609e+00  1.23924e+00  1.03007e+00
       H -4.34754e+00  9.77655e-01  4.55175e-01
4
# CELL(abcABC): 1000.00000  1000.00000  1000.00000    90.00000    90.00000    90.00000  Step:          14  Bead:       0 positions{angstrom}  cell{angstrom}
       O -3.14359e+00  1.07133e+00  3.58516e-01
       H -2.64670e+00  8.32202e-01 -4.78731e-01
       H -2.50282e+00  1.24459e+00  1.02060e+00
       H -4.33700e+00  9.88249e-01  4.52927e-01
4
# CELL(abcABC): 1000.00000  1000.00000  1000.00000    90.00000    90.00000    90.00000  Step:          15  Bead:       0 positions{angstrom}  cell{angstrom}
       O -3.14469e+00  1.07021e+00  3.58690e-01
       H -2.64712e+00  8.31010e-01 -4.72644e-01
       H -2.49905e+00  1.25092e+00  1.01283e+00
       H -4.32281e+00  1.00076e+00  4.51847e-01
4
# CELL(abcABC): 1000.00000  1000.00000  1000.00000    90.00000    90.00000    90.00000  Step:          16  Bead:       0 positions{angstrom}  cell{angstrom}
       O -3.14585e+00  1.06886e+00  3.58409e-01
       H -2.64918e+00  8.31403e-01 -4.61598e-01
       H -2.49447e+00  1.25888e+00  1.00684e+00
       H -4.30693e+00  1.01389e+00  4.51256e-01
4
# CELL(abcABC): 1000.00000  1000.00000  1000.00000    90.00000    90.00000    90.00000  Step:          17  Bead:       0 positions{angstrom}  cell{angstrom}
       O -3.14690e+00  1.06735e+00  3.57733e-01
       H -2.65293e+00  8.33886e-01 -4.46060e-01
       H -2.49038e+00  1.26807e+00  1.00153e+00
       H -4.29063e+00  1.02611e+00  4.51758e-01
4
# CELL(abcABC): 1000.00000  1000.00000  1000.00000    90.00000    90.00000    90.00000  Step:          18  Bead:       0 positions{angstrom}  cell{angstrom}
       O -3.14787e+00  1.06565e+00  3.56783e-01
       H -2.65944e+00  8.38301e-01 -4.27747e-01
       H -2.48516e+00  1.27778e+00  9.97569e-01
       H -4.27388e+00  1.03901e+00  4.52495e-01
4
# CELL(abcABC): 1000.00000  1000.00000  1000.00000    90.00000    90.00000    90.00000  Step:          19  Bead:       0 positions{angstrom}  cell{angstrom}
       O -3.14890e+00  1.06395e+00  3.55719e-01
       H -2.66618e+00  8.42961e-01 -4.08749e-01
       H -2.48136e+00  1.28727e+00  9.93967e-01
       H -4.25467e+00  1.05185e+00  4.53982e-01
4
# CELL(abcABC): 1000.00000  1000.00000  1000.00000    90.00000    90.00000    90.00000  Step:          20  Bead:       0 positions{angstrom}  cell{angstrom}
       O -3.14990e+00  1.06233e+00  3.54821e-01
       H -2.67207e+00  8.47572e-01 -3.93727e-01
       H -2.47976e+00  1.29702e+00  9.91281e-01
       H -4.23444e+00  1.06328e+00  4.55893e-01
4
# CELL(abcABC): 1000.00000  1000.00000  1000.00000    90.00000    90.00000    90.00000  Step:          21  Bead:       0 positions{angstrom}  cell{angstrom}
       O -3.15100e+00  1.06080e+00  3.54292e-01
       H -2.67628e+00  8.50390e-01 -3.85040e-01
       H -2.47823e+00  1.30732e+00  9.89943e-01
       H -4.21438e+00  1.07435e+00  4.56943e-01
4
# CELL(abcABC): 1000.00000  1000.00000  1000.00000    90.00000    90.00000    90.00000  Step:          22  Bead:       0 positions{angstrom}  cell{angstrom}
       O -3.15217e+00  1.05936e+00  3.54293e-01
       H -2.67867e+00  8.50520e-01 -3.82231e-01
       H -2.47660e+00  1.31767e+00  9.87009e-01
       H -4.19496e+00  1.08685e+00  4.57062e-01
4
# CELL(abcABC): 1000.00000  1000.00000  1000.00000    90.00000    90.00000    90.00000  Step:          23  Bead:       0 positions{angstrom}  cell{angstrom}
       O -3.15336e+00  1.05808e+00  3.54972e-01
       H -2.67779e+00  8.49171e-01 -3.87365e-01
       H -2.47634e+00  1.32812e+00  9.84196e-01
       H -4.17726e+00  1.09807e+00  4.54225e-01
4
# CELL(abcABC): 1000.00000  1000.00000  1000.00000    90.00000    90.00000    90.00000  Step:          24  Bead:       0 positions{angstrom}  cell{angstrom}
       O -3.15446e+00  1.05687e+00  3.56098e-01
       H -2.67389e+00  8.45079e-01 -3.98987e-01
       H -2.47804e+00  1.33912e+00  9.81190e-01
       H -4.16199e+00  1.11034e+00  4.50975e-01
4
# CELL(abcABC): 1000.00000  1000.00000  1000.00000    90.00000    90.00000    90.00000  Step:          25  Bead:       0 positions{angstrom}  cell{angstrom}
       O -3.15528e+00  1.05588e+00  3.57433e-01
       H -2.66896e+00  8.38833e-01 -4.14058e-01
       H -2.48243e+00  1.34882e+00  9.77877e-01
       H -4.14951e+00  1.12252e+00  4.48166e-01
4
# CELL(abcABC): 1000.00000  1000.00000  1000.00000    90.00000    90.00000    90.00000  Step:          26  Bead:       0 positions{angstrom}  cell{angstrom}
       O -3.15573e+00  1.05507e+00  3.58863e-01
       H -2.66442e+00  8.31451e-01 -4.31552e-01
       H -2.48856e+00  1.35757e+00  9.74033e-01
       H -4.14069e+00  1.13401e+00  4.46809e-01
4
# CELL(abcABC): 1000.00000  1000.00000  1000.00000    90.00000    90.00000    90.00000  Step:          27  Bead:       0 positions{angstrom}  cell{angstrom}
       O -3.15586e+00  1.05429e+00  3.60254e-01
       H -2.66180e+00  8.25230e-01 -4.48923e-01
       H -2.49622e+00  1.36487e+00  9.69825e-01
       H -4.13368e+00  1.14535e+00  4.46318e-01
4
# CELL(abcABC): 1000.00000  1000.00000  1000.00000    90.00000    90.00000    90.00000  Step:          28  Bead:       0 positions{angstrom}  cell{angstrom}
       O -3.15546e+00  1.05350e+00  3.61351e-01
       H -2.66301e+00  8.18267e-01 -4.63593e-01
       H -2.50414e+00  1.37188e+00  9.66301e-01
       H -4.13084e+00  1.15779e+00  4.47094e-01
4
# CELL(abcABC): 1000.00000  1000.00000  1000.00000    90.00000    90.00000    90.00000  Step:          29  Bead:       0 positions{angstrom}  cell{angstrom}
       O -3.15465e+00  1.05262e+00  3.62110e-01
       H -2.66685e+00  8.12812e-01 -4.75382e-01
       H -2.51309e+00  1.37864e+00  9.63635e-01
       H -4.13100e+00  1.17048e+00  4.49502e-01
4
# CELL(abcABC): 1000.00000  1000.00000  1000.00000    90.00000    90.00000    90.00000  Step:          30  Bead:       0 positions{angstrom}  cell{angstrom}
       O -3.15344e+00  1.05154e+00  3.62390e-01
       H -2.67382e+00  8.09821e-01 -4.81162e-01
       H -2.52159e+00  1.38542e+00  9.62682e-01
       H -4.13464e+00  1.18394e+00  4.51790e-01
4
# CELL(abcABC): 1000.00000  1000.00000  1000.00000    90.00000    90.00000    90.00000  Step:          31  Bead:       0 positions{angstrom}  cell{angstrom}
       O -3.15207e+00  1.05021e+00  3.62254e-01
       H -2.68253e+00  8.08519e-01 -4.81237e-01
       H -2.52815e+00  1.39361e+00  9.62672e-01
       H -4.14123e+00  1.19802e+00  4.54035e-01
4
# CELL(abcABC): 1000.00000  1000.00000  1000.00000    90.00000    90.00000    90.00000  Step:          32  Bead:       0 positions{angstrom}  cell{angstrom}
       O -3.15045e+00  1.04887e+00  3.61489e-01
       H -2.69497e+00  8.06731e-01 -4.75514e-01
       H -2.53251e+00  1.40342e+00  9.65453e-01
       H -4.15012e+00  1.21129e+00  4.57671e-01
4
# CELL(abcABC): 1000.00000  1000.00000  1000.00000    90.00000    90.00000    90.00000  Step:          33  Bead:       0 positions{angstrom}  cell{angstrom}
       O -3.14869e+00  1.04760e+00  3.60267e-01
       H -2.70990e+00  8.05262e-01 -4.64412e-01
       H -2.53494e+00  1.41241e+00  9.69853e-01
       H -4.16071e+00  1.22403e+00  4.61560e-01
4
# CELL(abcABC): 1000.00000  1000.00000  1000.00000    90.00000    90.00000    90.00000  Step:          34  Bead:       0 positions{angstrom}  cell{angstrom}
       O -3.14676e+00  1.04637e+00  3.58966e-01
       H -2.72508e+00  8.04007e-01 -4.51174e-01
       H -2.53796e+00  1.42069e+00  9.75025e-01
       H -4.17304e+00  1.23646e+00  4.63814e-01
4
# CELL(abcABC): 1000.00000  1000.00000  1000.00000    90.00000    90.00000    90.00000  Step:          35  Bead:       0 positions{angstrom}  cell{angstrom}
       O -3.14496e+00  1.04521e+00  3.57695e-01
       H -2.73776e+00  8.02309e-01 -4.38765e-01
       H -2.54125e+00  1.42930e+00  9.80629e-01
       H -4.18567e+00  1.24790e+00  4.65978e-01
4
# CELL(abcABC): 1000.00000  1000.00000  1000.00000    90.00000    90.00000    90.00000  Step:          36  Bead:       0 positions{angstrom}  cell{angstrom}
       O -3.14339e+00  1.04416e+00  3.56681e-01
       H -2.74791e+00  7.99497e-01 -4.29411e-01
       H -2.54378e+00  1.43823e+00  9.84444e-01
       H -4.19793e+00  1.25852e+00  4.68895e-01
4
# CELL(abcABC): 1000.00000  1000.00000  1000.00000    90.00000    90.00000    90.00000  Step:          37  Bead:       0 positions{angstrom}  cell{angstrom}
       O -3.14218e+00  1.04342e+00  3.55969e-01
       H -2.75394e+00  7.95720e-01 -4.22870e-01
       H -2.54537e+00  1.44522e+00  9.86187e-01
       H -4.20959e+00  1.26700e+00  4.71910e-01
4
# CELL(abcABC): 1000.00000  1000.00000  1000.00000    90.00000    90.00000    90.00000  Step:          38  Bead:       0 positions{angstrom}  cell{angstrom}
       O -3.14118e+00  1.04300e+00  3.55947e-01
       H -2.75665e+00  7.89484e-01 -4.23445e-01
       H -2.54651e+00  1.44951e+00  9.85651e-01
       H -4.22162e+00  1.27567e+00  4.73374e-01
4
# CELL(abcABC): 1000.00000  1000.00000  1000.00000    90.00000    90.00000    90.00000  Step:          39  Bead:       0 positions{angstrom}  cell{angstrom}
       O -3.14075e+00  1.04303e+00  3.56343e-01
       H -2.75427e+00  7.80415e-01 -4.29307e-01
       H -2.54665e+00  1.45091e+00  9.83922e-01
       H -4.23066e+00  1.28288e+00  4.74680e-01
4
# CELL(abcABC): 1000.00000  1000.00000  1000.00000    90.00000    90.00000    90.00000  Step:          40  Bead:       0 positions{angstrom}  cell{angstrom}
       O -3.14076e+00  1.04332e+00  3.56970e-01
       H -2.74814e+00  7.69685e-01 -4.38529e-01
       H -2.54567e+00  1.45074e+00  9.81864e-01
       H -4.23756e+00  1.28922e+00  4.76005e-01
4
# CELL(abcABC): 1000.00000  1000.00000  1000.00000    90.00000    90.00000    90.00000  Step:          41  Bead:       0 positions{angstrom}  cell{angstrom}
       O -3.14112e+00  1.04383e+00  3.57803e-01
       H -2.73964e+00  7.58586e-01 -4.50323e-01
       H -2.54301e+00  1.44931e+00  9.78383e-01
       H -4.24295e+00  1.29359e+00  4.78065e-01
4
# CELL(abcABC): 1000.00000  1000.00000  1000.00000    90.00000    90.00000    90.00000  Step:          42  Bead:       0 positions{angstrom}  cell{angstrom}
       O -3.14189e+00  1.04467e+00  3.58770e-01
       H -2.72823e+00  7.45358e-01 -4.62183e-01
       H -2.53882e+00  1.44640e+00  9.73824e-01
       H -4.24638e+00  1.29637e+00  4.79126e-01
4
# CELL(abcABC): 1000.00000  1000.00000  1000.00000    90.00000    90.00000    90.00000  Step:          43  Bead:       0 positions{angstrom}  cell{angstrom}
       O -3.14286e+00  1.04558e+00  3.59663e-01
       H -2.71688e+00  7.33503e-01 -4.71793e-01
       H -2.53310e+00  1.44348e+00  9.68407e-01
       H -4.24804e+00  1.29669e+00  4.79974e-01
4
# CELL(abcABC): 1000.00000  1000.00000  1000.00000    90.00000    90.00000    90.00000  Step:          44  Bead:       0 positions{angstrom}  cell{angstrom}
       O -3.14395e+00  1.04661e+00  3.60338e-01
       H -2.70619e+00  7.22211e-01 -4.77654e-01
       H -2.52586e+00  1.43896e+00  9.61727e-01
       H -4.24865e+00  1.29619e+00  4.81805e-01
4
# CELL(abcABC): 1000.00000  1000.00000  1000.00000    90.00000    90.00000    90.00000  Step:          45  Bead:       0 positions{angstrom}  cell{angstrom}
       O -3.14503e+00  1.04770e+00  3.60759e-01
       H -2.69775e+00  7.12791e-01 -4.78613e-01
       H -2.51650e+00  1.43279e+00  9.53762e-01
       H -4.24933e+00  1.29448e+00  4.84048e-01
4
# CELL(abcABC): 1000.00000  1000.00000  1000.00000    90.00000    90.00000    90.00000  Step:          46  Bead:       0 positions{angstrom}  cell{angstrom}
       O -3.14619e+00  1.04882e+00  3.60845e-01
       H -2.69166e+00  7.06024e-01 -4.73873e-01
       H -2.50588e+00  1.42491e+00  9.45135e-01
       H -4.24770e+00  1.29139e+00  4.86573e-01
4
# CELL(abcABC): 1000.00000  1000.00000  1000.00000    90.00000    90.00000    90.00000  Step:          47  Bead:       0 positions{angstrom}  cell{angstrom}
       O -3.14731e+00  1.04980e+00  3.60672e-01
       H -2.68809e+00  7.01094e-01 -4.62784e-01
       H -2.49387e+00  1.41656e+00  9.35715e-01
       H -4.24539e+00  1.28903e+00  4.87650e-01
4
# CELL(abcABC): 1000.00000  1000.00000  1000.00000    90.00000    90.00000    90.00000  Step:          48  Bead:       0 positions{angstrom}  cell{angstrom}
       O -3.14839e+00  1.05085e+00  3.60131e-01
       H -2.68664e+00  6.97037e-01 -4.45929e-01
       H -2.48088e+00  1.40824e+00  9.25831e-01
       H -4.24277e+00  1.28482e+00  4.89266e-01
4
# CELL(abcABC): 1000.00000  1000.00000  1000.00000    90.00000    90.00000    90.00000  Step:          49  Bead:       0 positions{angstrom}  cell{angstrom}
       O -3.14945e+00  1.05188e+00  3.59182e-01
       H -2.68750e+00  6.93952e-01 -4.24220e-01
       H -2.46606e+00  1.39920e+00  9.16482e-01
       H -4.23986e+00  1.28062e+00  4.91969e-01
4
# CELL(abcABC): 1000.00000  1000.00000  1000.00000    90.00000    90.00000    90.00000  Step:          50  Bead:       0 positions{angstrom}  cell{angstrom}
       O -3.15027e+00  1.05299e+00  3.58149e-01
       H -2.69058e+00  6.91680e-01 -4.00322e-01
       H -2.45294e+00  1.38901e+00  9.07635e-01
       H -4.23692e+00  1.27534e+00  4.93318e-01
4
# CELL(abcABC): 1000.00000  1000.00000  1000.00000    90.00000    90.00000    90.00000  Step:          51  Bead:       0 positions{angstrom}  cell{angstrom}
       O -3.15103e+00  1.05417e+00  3.57082e-01
       H -2.69512e+00  6.88684e-01 -3.76652e-01
       H -2.44062e+00  1.37886e+00  8.99163e-01
       H -4.23262e+00  1.26980e+00  4.95058e-01
4
# CELL(abcABC): 1000.00000  1000.00000  1000.00000    90.00000    90.00000    90.00000  Step:          52  Bead:       0 positions{angstrom}  cell{angstrom}
       O -3.15172e+00  1.05557e+00  3.56228e-01
       H -2.70020e+00  6.83978e-01 -3.55251e-01
       H -2.42953e+00  1.36804e+00  8.90178e-01
       H -4.22763e+00  1.26310e+00  4.96189e-01
4
# CELL(abcABC): 1000.00000  1000.00000  1000.00000    90.00000    90.00000    90.00000  Step:          53  Bead:       0 positions{angstrom}  cell{angstrom}
       O -3.15242e+00  1.05713e+00  3.55577e-01
       H -2.70387e+00  6.77106e-01 -3.39392e-01
       H -2.42001e+00  1.35881e+00  8.82684e-01
       H -4.22243e+00  1.25448e+00  4.98160e-01
4
# CELL(abcABC): 1000.00000  1000.00000  1000.00000    90.00000    90.00000    90.00000  Step:          54  Bead:       0 positions{angstrom}  cell{angstrom}
       O -3.15309e+00  1.05899e+00  3.54978e-01
       H -2.70615e+00  6.65792e-01 -3.28633e-01
       H -2.41244e+00  1.35071e+00  8.77029e-01
       H -4.21708e+00  1.24427e+00  5.02558e-01
4
# CELL(abcABC): 1000.00000  1000.00000  1000.00000    90.00000    90.00000    90.00000  Step:          55  Bead:       0 positions{angstrom}  cell{angstrom}
       O -3.15379e+00  1.06111e+00  3.54676e-01
       H -2.70743e+00  6.50699e-01 -3.23803e-01
       H -2.40648e+00  1.34337e+00  8.73265e-01
       H -4.21070e+00  1.23315e+00  5.06292e-01
4
# CELL(abcABC): 1000.00000  1000.00000  1000.00000    90.00000    90.00000    90.00000  Step:          56  Bead:       0 positions{angstrom}  cell{angstrom}
       O -3.15449e+00  1.06339e+00  3.54655e-01
       H -2.70538e+00  6.32219e-01 -3.24497e-01
       H -2.40255e+00  1.33657e+00  8.69705e-01
       H -4.20554e+00  1.22228e+00  5.10879e-01
4
# CELL(abcABC): 1000.00000  1000.00000  1000.00000    90.00000    90.00000    90.00000  Step:          57  Bead:       0 positions{angstrom}  cell{angstrom}
       O -3.15505e+00  1.06574e+00  3.54754e-01
       H -2.70159e+00  6.11634e-01 -3.29174e-01
       H -2.40149e+00  1.33031e+00  8.68582e-01
       H -4.20149e+00  1.21181e+00  5.15109e-01
4
# CELL(abcABC): 1000.00000  1000.00000  1000.00000    90.00000    90.00000    90.00000  Step:          58  Bead:       0 positions{angstrom}  cell{angstrom}
       O -3.15548e+00  1.06814e+00  3.54884e-01
       H -2.69774e+00  5.88989e-01 -3.36414e-01
       H -2.40164e+00  1.32520e+00  8.69724e-01
       H -4.19832e+00  1.20139e+00  5.19143e-01
4
# CELL(abcABC): 1000.00000  1000.00000  1000.00000    90.00000    90.00000    90.00000  Step:          59  Bead:       0 positions{angstrom}  cell{angstrom}
       O -3.15570e+00  1.07040e+00  3.54789e-01
       H -2.69517e+00  5.66695e-01 -3.43761e-01
       H -2.40281e+00  1.32182e+00  8.74186e-01
       H -4.19618e+00  1.19120e+00  5.23538e-01
4
# CELL(abcABC): 1000.00000  1000.00000  1000.00000    90.00000    90.00000    90.00000  Step:          60  Bead:       0 positions{angstrom}  cell{angstrom}
       O -3.15565e+00  1.07252e+00  3.54527e-01
       H -2.69675e+00  5.45696e-01 -3.49381e-01
       H -2.40438e+00  1.31904e+00  8.78704e-01
       H -4.19383e+00  1.18138e+00  5.28799e-01
4
# CELL(abcABC): 1000.00000  1000.00000  1000.00000    90.00000    90.00000    90.00000  Step:          61  Bead:       0 positions{angstrom}  cell{angstrom}
       O -3.15537e+00  1.07441e+00  3.54010e-01
       H -2.70109e+00  5.26952e-01 -3.52297e-01
       H -2.40573e+00  1.31717e+00  8.83407e-01
       H -4.19271e+00  1.17188e+00  5.35214e-01
4
# CELL(abcABC): 1000.00000  1000.00000  1000.00000    90.00000    90.00000    90.00000  Step:          62  Bead:       0 positions{angstrom}  cell{angstrom}
       O -3.15466e+00  1.07609e+00  3.53307e-01
       H -2.71011e+00  5.10987e-01 -3.51864e-01
       H -2.40926e+00  1.31581e+00  8.88836e-01
       H -4.19133e+00  1.16259e+00  5.40507e-01
4
# CELL(abcABC): 1000.00000  1000.00000  1000.00000    90.00000    90.00000    90.00000  Step:          63  Bead:       0 positions{angstrom}  cell{angstrom}
       O -3.15358e+00  1.07733e+00  3.52121e-01
       H -2.72262e+00  5.00120e-01 -3.46782e-01
       H -2.41394e+00  1.31459e+00  8.95150e-01
       H -4.19134e+00  1.15503e+00  5.47936e-01
4
# CELL(abcABC): 1000.00000  1000.00000  1000.00000    90.00000    90.00000    90.00000  Step:          64  Bead:       0 positions{angstrom}  cell{angstrom}
       O -3.15225e+00  1.07822e+00  3.50590e-01
       H -2.73731e+00  4.93764e-01 -3.36722e-01
       H -2.41893e+00  1.31392e+00  9.02381e-01
       H -4.19278e+00  1.14785e+00  5.54954e-01
4
# CELL(abcABC): 1000.00000  1000.00000  1000.00000    90.00000    90.00000    90.00000  Step:          65  Bead:       0 positions{angstrom}  cell{angstrom}
       O -3.15071e+00  1.07875e+00  3.48840e-01
       H -2.75546e+00  4.91900e-01 -3.24493e-01
       H -2.42375e+00  1.31517e+00  9.10132e-01
       H -4.19427e+00  1.14015e+00  5.62760e-01
4
# CELL(abcABC): 1000.00000  1000.00000  1000.00000    90.00000    90.00000    90.00000  Step:          66  Bead:       0 positions{angstrom}  cell{angstrom}
       O -3.14905e+00  1.07892e+00  3.46858e-01
       H -2.77541e+00  4.95669e-01 -3.09559e-01
       H -2.42885e+00  1.31551e+00  9.18550e-01
       H -4.19555e+00  1.13334e+00  5.70863e-01
4
# CELL(abcABC): 1000.00000  1000.00000  1000.00000    90.00000    90.00000    90.00000  Step:          67  Bead:       0 positions{angstrom}  cell{angstrom}
       O -3.14729e+00  1.07902e+00  3.44883e-01
       H -2.79546e+00  5.00163e-01 -2.95361e-01
       H -2.43378e+00  1.31638e+00  9.27499e-01
       H -4.19854e+00  1.12642e+00  5.79068e-01
4
# CELL(abcABC): 1000.00000  1000.00000  1000.00000    90.00000    90.00000    90.00000  Step:          68  Bead:       0 positions{angstrom}  cell{angstrom}
       O -3.14562e+00  1.07905e+00  3.43238e-01
       H -2.81376e+00  5.04045e-01 -2.83619e-01
       H -2.43872e+00  1.31762e+00  9.34449e-01
       H -4.20171e+00  1.12072e+00  5.86480e-01
4
# CELL(abcABC): 1000.00000  1000.00000  1000.00000    90.00000    90.00000    90.00000  Step:          69  Bead:       0 positions{angstrom}  cell{angstrom}
       O -3.14407e+00  1.07932e+00  3.41764e-01
       H -2.82991e+00  5.04009e-01 -2.74578e-01
       H -2.44454e+00  1.31914e+00  9.41564e-01
       H -4.20436e+00  1.11496e+00  5.93722e-01
4
# CELL(abcABC): 1000.00000  1000.00000  1000.00000    90.00000    90.00000    90.00000  Step:          70  Bead:       0 positions{angstrom}  cell{angstrom}
       O -3.14294e+00  1.07968e+00  3.40772e-01
       H -2.84211e+00  5.00467e-01 -2.72429e-01
       H -2.45020e+00  1.32157e+00  9.47381e-01
       H -4.20449e+00  1.11039e+00  6.01509e-01
4
# CELL(abcABC): 1000.00000  1000.00000  1000.00000    90.00000    90.00000    90.00000  Step:          71  Bead:       0 positions{angstrom}  cell{angstrom}
       O -3.14207e+00  1.08038e+00  3.40373e-01
       H -2.85100e+00  4.91092e-01 -2.78102e-01
       H -2.45613e+00  1.32355e+00  9.51527e-01
       H -4.20345e+00  1.10673e+00  6.09366e-01
4
# CELL(abcABC): 1000.00000  1000.00000  1000.00000    90.00000    90.00000    90.00000  Step:          72  Bead:       0 positions{angstrom}  cell{angstrom}
       O -3.14156e+00  1.08117e+00  3.40386e-01
       H -2.85589e+00  4.78069e-01 -2.88847e-01
       H -2.46135e+00  1.32576e+00  9.55175e-01
       H -4.20140e+00  1.10487e+00  6.16260e-01
4
# CELL(abcABC): 1000.00000  1000.00000  1000.00000    90.00000    90.00000    90.00000  Step:          73  Bead:       0 positions{angstrom}  cell{angstrom}
       O -3.14131e+00  1.08209e+00  3.40804e-01
       H -2.85800e+00  4.62720e-01 -3.03088e-01
       H -2.46578e+00  1.32841e+00  9.57628e-01
       H -4.19883e+00  1.10305e+00  6.21416e-01
4
# CELL(abcABC): 1000.00000  1000.00000  1000.00000    90.00000    90.00000    90.00000  Step:          74  Bead:       0 positions{angstrom}  cell{angstrom}
       O -3.14135e+00  1.08289e+00  3.41560e-01
       H -2.85780e+00  4.47435e-01 -3.19576e-01
       H -2.46917e+00  1.33116e+00  9.57781e-01
       H -4.19505e+00  1.10290e+00  6.25743e-01
4
# CELL(abcABC): 1000.00000  1000.00000  1000.00000    90.00000    90.00000    90.00000  Step:          75  Bead:       0 positions{angstrom}  cell{angstrom}
       O -3.14144e+00  1.08353e+00  3.42340e-01
       H -2.85695e+00  4.33261e-01 -3.35240e-01
       H -2.47182e+00  1.33342e+00  9.57748e-01
       H -4.19176e+00  1.10467e+00  6.29060e-01
4
# CELL(abcABC): 1000.00000  1000.00000  1000.00000    90.00000    90.00000    90.00000  Step:          76  Bead:       0 positions{angstrom}  cell{angstrom}
       O -3.14180e+00  1.08373e+00  3.42885e-01
       H -2.85484e+00  4.23152e-01 -3.46529e-01
       H -2.47305e+00  1.33587e+00  9.57048e-01
       H -4.18705e+00  1.10911e+00  6.32400e-01
4
# CELL(abcABC): 1000.00000  1000.00000  1000.00000    90.00000    90.00000    90.00000  Step:          77  Bead:       0 positions{angstrom}  cell{angstrom}
       O -3.14221e+00  1.08352e+00  3.43194e-01
       H -2.85285e+00  4.18862e-01 -3.53271e-01
       H -2.47310e+00  1.33873e+00  9.56298e-01
       H -4.18247e+00  1.11383e+00  6.34982e-01
4
# CELL(abcABC): 1000.00000  1000.00000  1000.00000    90.00000    90.00000    90.00000  Step:          78  Bead:       0 positions{angstrom}  cell{angstrom}
       O -3.14267e+00  1.08292e+00  3.43431e-01
       H -2.85237e+00  4.19307e-01 -3.55810e-01
       H -2.47072e+00  1.34229e+00  9.54607e-01
       H -4.17800e+00  1.11937e+00  6.35454e-01
4
# CELL(abcABC): 1000.00000  1000.00000  1000.00000    90.00000    90.00000    90.00000  Step:          79  Bead:       0 positions{angstrom}  cell{angstrom}
       O -3.14327e+00  1.08203e+00  3.43404e-01
       H -2.85297e+00  4.25721e-01 -3.51838e-01
       H -2.46559e+00  1.34493e+00  9.51840e-01
       H -4.17298e+00  1.12451e+00  6.34682e-01
4
# CELL(abcABC): 1000.00000  1000.00000  1000.00000    90.00000    90.00000    90.00000  Step:          80  Bead:       0 positions{angstrom}  cell{angstrom}
       O -3.14401e+00  1.08081e+00  3.43088e-01
       H -2.85355e+00  4.37319e-01 -3.43162e-01
       H -2.45891e+00  1.34707e+00  9.48962e-01
       H -4.16727e+00  1.13003e+00  6.33895e-01
4
# CELL(abcABC): 1000.00000  1000.00000  1000.00000    90.00000    90.00000    90.00000  Step:          81  Bead:       0 positions{angstrom}  cell{angstrom}
       O -3.14485e+00  1.07921e+00  3.42747e-01
       H -2.85209e+00  4.53620e-01 -3.31547e-01
       H -2.45217e+00  1.35068e+00  9.44737e-01
       H -4.16227e+00  1.13556e+00  6.31913e-01
4
# CELL(abcABC): 1000.00000  1000.00000  1000.00000    90.00000    90.00000    90.00000  Step:          82  Bead:       0 positions{angstrom}  cell{angstrom}
       O -3.14568e+00  1.07760e+00  3.42349e-01
       H -2.84951e+00  4.71615e-01 -3.17301e-01
       H -2.44502e+00  1.35259e+00  9.38587e-01
       H -4.15881e+00  1.14116e+00  6.30144e-01
4
# CELL(abcABC): 1000.00000  1000.00000  1000.00000    90.00000    90.00000    90.00000  Step:          83  Bead:       0 positions{angstrom}  cell{angstrom}
       O -3.14654e+00  1.07592e+00  3.42137e-01
       H -2.84577e+00  4.90308e-01 -3.02964e-01
       H -2.43832e+00  1.35435e+00  9.30409e-01
       H -4.15547e+00  1.14738e+00  6.27354e-01
4
# CELL(abcABC): 1000.00000  1000.00000  1000.00000    90.00000    90.00000    90.00000  Step:          84  Bead:       0 positions{angstrom}  cell{angstrom}
       O -3.14741e+00  1.07438e+00  3.42300e-01
       H -2.83899e+00  5.06278e-01 -2.92532e-01
       H -2.43346e+00  1.35582e+00  9.20076e-01
       H -4.15337e+00  1.15444e+00  6.24653e-01
4
# CELL(abcABC): 1000.00000  1000.00000  1000.00000    90.00000    90.00000    90.00000  Step:          85  Bead:       0 positions{angstrom}  cell{angstrom}