14
# CELL(abcABC): 1000.00000  1000.00000  1000.00000    90.00000    90.00000    90.00000  Step:         171  Bead:       0 positions{angstrom}  cell{angstrom}
       C -7.58647e-01  6.09631e-01  1.86562e-01
       C -8.63323e-03 -6.54079e-01  7.07808e-01
       C -1.61565e+00  4.84912e-01 -1.01489e+00
       C -7.14763e-01  1.80713e+00  1.13139e+00
       H -1.46431e+00  1.86083e+00  1.87738e+00
       H -7.32570e-01  2.70200e+00  5.09544e-01
       H  2.93414e-01  1.86867e+00  1.61663e+00
       H -1.16117e+00 -2.13905e-02 -1.84571e+00
       H -1.87753e+00  1.45348e+00 -1.30015e+00
       H -2.54076e+00 -4.52033e-02 -8.29655e-01
       H  1.12574e+00 -5.16552e-01  8.27004e-01
       H -1.50867e-01 -1.48212e+00 -2.92652e-02
       H -4.44535e-01 -9.29810e-01  1.61710e+00
       H -3.02788e-01  8.05750e-01 -1.91801e-01
