11115
# CELL(abcABC):   47.66706    47.66706    47.66706    90.00000    90.00000    90.00000  Step:       10000  Bead:       0 positions{angstrom}  cell{angstrom}
       C  5.95902e+00  5.93600e+00  6.92831e+00
       H  5.30749e+00  6.74382e+00  6.64809e+00
       H  6.90014e+00  6.22250e+00  7.34611e+00
       H  5.51986e+00  5.32819e+00  7.78967e+00
       C  6.26164e+00  4.94360e+00  5.85454e+00
       O  5.36824e+00  4.24184e+00  5.38492e+00
       N  7.53913e+00  4.88997e+00  5.50273e+00
       H  8.24276e+00  5.40410e+00  6.02687e+00
       C  8.11069e+00  3.96922e+00  4.44455e+00
       H  7.32221e+00  3.93388e+00  3.73766e+00
       C  9.22859e+00  4.61784e+00  3.66671e+00
       H  1.00890e+01  4.68076e+00  4.29672e+00
       H  8.86234e+00  5.59969e+00  3.41937e+00
       C  9.72279e+00  4.07022e+00  2.33953e+00
       O  1.06789e+01  4.65768e+00  1.78228e+00
       O  9.10173e+00  3.16591e+00  1.72171e+00
       H  9.39653e+00  2.79776e+00  7.50180e-01
       C  8.45197e+00  2.48784e+00  4.92134e+00
       O  8.30132e+00  1.59309e+00  4.07183e+00
       N  8.91352e+00  2.30358e+00  6.19103e+00
       H  8.95925e+00  1.44406e+00  6.65439e+00
       H  8.93009e+00  3.09762e+00  6.73465e+00
       O -1.92144e+01 -3.20644e+00 -6.71208e+00
       H -2.02080e+01 -3.37039e+00 -6.77734e+00
       H -1.91317e+01 -3.44404e+00 -5.76117e+00
       O -4.31147e+01 -2.71290e+01 -3.01965e+01
       H -4.36710e+01 -2.65269e+01 -3.07657e+01
       H -4.22359e+01 -2.71124e+01 -3.07137e+01
       O -1.17565e+01 -1.11563e+01  2.04374e+00
       H -1.24291e+01 -1.09133e+01  1.40939e+00
       H -1.09978e+01 -1.05145e+01  1.78092e+00
       O -2.27982e+01 -4.00313e+01 -1.05297e+01
       H -2.28780e+01 -4.07598e+01 -9.91414e+00
       H -2.27100e+01 -4.05353e+01 -1.13410e+01
       O -3.07267e+01 -2.42404e+01  5.71132e+00
       H -3.04419e+01 -2.50696e+01  5.31310e+00
       H -3.17349e+01 -2.42911e+01  5.69471e+00
       O -2.63193e+01 -3.20218e+01 -1.55350e+01
       H -2.69920e+01 -3.13442e+01 -1.57967e+01
       H -2.67959e+01 -3.28649e+01 -1.54365e+01
       O -2.77838e+01 -3.41392e+01 -1.45512e+01
       H -2.74826e+01 -3.47203e+01 -1.38543e+01
       H -2.82616e+01 -3.47634e+01 -1.50383e+01
       O -2.25125e+01 -8.58710e+00 -1.96562e+01
       H -2.28225e+01 -8.99451e+00 -2.04945e+01
       H -2.23211e+01 -7.70599e+00 -1.99521e+01
       O -1.44829e+01 -2.59748e+01 -2.35371e+01
       H -1.46701e+01 -2.54259e+01 -2.27562e+01
       H -1.41061e+01 -2.52215e+01 -2.40848e+01
       O -9.55262e-01 -3.78981e+01 -2.74524e+00
       H -6.29251e-01 -3.83846e+01 -1.98007e+00
       H -1.81119e+00 -3.83502e+01 -2.94636e+00
       O -1.62636e+01 -8.65140e+00 -2.30942e+01
       H -1.60942e+01 -8.94657e+00 -2.40062e+01
       H -1.55135e+01 -9.03318e+00 -2.25883e+01
       O -2.71968e+00  1.54967e+01 -4.43925e+00
       H -2.91217e+00  1.50118e+01 -3.60544e+00
       H -2.57805e+00  1.46457e+01 -4.99445e+00
       O -1.27781e+01 -2.94805e+01 -2.46794e+01
       H -1.36565e+01 -2.99203e+01 -2.46312e+01
       H -1.28431e+01 -2.90774e+01 -2.55819e+01
       O -1.97857e+01 -1.30256e+01 -1.02237e+01
       H -2.01042e+01 -1.27185e+01 -9.34331e+00
       H -1.94348e+01 -1.38884e+01 -1.00015e+01
       O -3.72536e+01 -3.39493e+01 -4.62958e+01
       H -3.76988e+01 -3.39782e+01 -4.71398e+01
       H -3.75721e+01 -3.47750e+01 -4.59148e+01
       O -2.34843e+01 -1.42471e+01 -1.87183e+01
       H -2.31521e+01 -1.33881e+01 -1.88796e+01
       H -2.38947e+01 -1.40724e+01 -1.78852e+01
       O -3.71303e+01 -3.17927e+01  1.58043e+01
       H -3.72941e+01 -3.26666e+01  1.61545e+01
       H -3.80283e+01 -3.13419e+01  1.59165e+01
       O -1.52547e+01  3.86511e+00 -3.00189e+01
       H -1.59625e+01  3.39847e+00 -2.96451e+01
       H -1.55339e+01  4.82631e+00 -2.98650e+01
       O -2.11528e+01 -1.93521e+01  1.26235e+01
       H -2.18438e+01 -1.94479e+01  1.32802e+01
       H -2.12870e+01 -2.01867e+01  1.21148e+01
       O -3.38436e+01  1.10698e+01 -3.84607e+01
       H -3.37554e+01  1.01002e+01 -3.85265e+01
       H -3.48405e+01  1.11256e+01 -3.84585e+01
       O -5.01126e+00 -3.03974e+01 -1.94665e+01
       H -5.31606e+00 -3.00219e+01 -2.02303e+01
       H -4.26409e+00 -3.08757e+01 -1.98576e+01
       O -4.20443e+01 -5.42936e+00 -3.08393e+01
       H -4.22175e+01 -6.18909e+00 -3.14607e+01
       H -4.24752e+01 -4.73924e+00 -3.12785e+01
       O -4.82467e+00 -2.41023e+00 -8.96565e+00
       H -5.44837e+00 -2.29628e+00 -9.62707e+00
       H -4.14103e+00 -3.01200e+00 -9.38378e+00
       O -2.77716e+01 -1.47558e+01 -1.57507e+01
       H -2.71976e+01 -1.54970e+01 -1.58730e+01
       H -2.77709e+01 -1.45662e+01 -1.48014e+01
       O -1.21922e+01 -4.04320e+01 -2.91998e+01
       H -1.30276e+01 -4.09588e+01 -2.90245e+01
       H -1.25788e+01 -3.97258e+01 -2.97422e+01
       O -9.03792e+00 -5.98103e+00 -2.81049e+01
       H -9.11337e+00 -6.71958e+00 -2.74246e+01
       H -9.46285e+00 -6.38820e+00 -2.88259e+01
       O -1.34970e+01  2.44570e+01 -1.26940e+01
       H -1.44595e+01  2.44670e+01 -1.26821e+01
       H -1.32916e+01  2.42164e+01 -1.17859e+01
       O -1.57831e+01 -2.02119e+00  1.21201e+01
       H -1.51972e+01 -2.39618e+00  1.27787e+01
       H -1.62298e+01 -2.77395e+00  1.17471e+01
       O -1.02801e+01 -1.13868e+01 -1.17556e+01
       H -1.04999e+01 -1.05580e+01 -1.22174e+01
       H -1.03372e+01 -1.11011e+01 -1.08014e+01
       O -1.33257e+01 -1.67214e+01 -5.13585e+00
       H -1.41072e+01 -1.73189e+01 -5.11886e+00
       H -1.31286e+01 -1.65483e+01 -4.21537e+00
       O  1.61453e+01  7.40341e+00 -4.36317e+01
       H  1.62919e+01  8.29517e+00 -4.39719e+01
       H  1.58227e+01  6.91701e+00 -4.44109e+01
       O  1.10566e+01 -2.32801e+01 -2.06186e+01
       H  1.04877e+01 -2.29264e+01 -1.98856e+01
       H  1.03269e+01 -2.37874e+01 -2.10585e+01
       O  3.40299e+00 -4.58797e+00 -1.68594e+00
       H  3.84368e+00 -4.13313e+00 -9.58888e-01
       H  3.90867e+00 -4.34863e+00 -2.47940e+00
       O -3.54186e+01 -1.85440e+01  1.38031e+00
       H -3.48065e+01 -1.79666e+01  8.60814e-01
       H -3.61409e+01 -1.79072e+01  1.68342e+00
       O -6.95411e+00 -1.71369e+01 -1.91428e+01
       H -6.03708e+00 -1.74316e+01 -1.94754e+01
       H -7.51879e+00 -1.78030e+01 -1.94295e+01
       O -7.11194e+00 -2.19182e+01 -3.36660e+01
       H -8.09579e+00 -2.19913e+01 -3.35434e+01
       H -6.93347e+00 -2.18650e+01 -3.26726e+01
       O -1.07183e+01 -2.56252e+01  2.59497e+00
       H -1.05572e+01 -2.56270e+01  1.66678e+00
       H -9.87868e+00 -2.53089e+01  3.03268e+00
       O -1.89684e+01 -3.51862e+01 -1.82810e+01
       H -1.80745e+01 -3.49721e+01 -1.78756e+01
       H -1.96659e+01 -3.44870e+01 -1.79385e+01
       O -1.04327e+01 -6.18034e+00  5.21377e+00
       H -1.05429e+01 -6.87080e+00  4.52473e+00
       H -1.12808e+01 -6.20696e+00  5.57449e+00
       O  1.13396e+01  1.25585e+00 -3.96920e+01
       H  1.06733e+01  5.41233e-01 -3.97580e+01
       H  1.18275e+01  1.03685e+00 -3.88884e+01
       O -1.86065e-01 -3.26074e+01 -2.34103e+01
       H -1.05446e+00 -3.30411e+01 -2.32718e+01
       H  4.73782e-01 -3.33622e+01 -2.34500e+01
       O -3.50341e+01 -1.53098e+01 -8.24175e+00
       H -3.51931e+01 -1.45668e+01 -7.65256e+00
       H -3.44786e+01 -1.58673e+01 -7.65645e+00
       O  9.12475e+00 -1.59467e+01 -1.84094e+01
       H  8.32322e+00 -1.54006e+01 -1.81233e+01
       H  8.78959e+00 -1.68486e+01 -1.82773e+01
       O -2.24347e+01 -5.34287e+01 -3.37798e+01
       H -2.25115e+01 -5.43607e+01 -3.34872e+01
       H -2.15090e+01 -5.34843e+01 -3.39791e+01
       O -1.64155e+01 -6.15328e+00 -4.04016e+01
       H -1.56153e+01 -6.29858e+00 -3.98019e+01
       H -1.61267e+01 -5.42841e+00 -4.08946e+01
       O -1.04708e+01  6.79439e+00 -3.94333e+01
       H -9.95442e+00  7.60168e+00 -3.94009e+01
       H -9.68062e+00  6.20489e+00 -3.93505e+01
       O -6.15384e+01 -2.53727e+01 -5.57245e+00
       H -6.16541e+01 -2.54460e+01 -4.61538e+00
       H -6.08032e+01 -2.60209e+01 -5.71805e+00
       O -3.18877e+01 -1.45024e+01 -6.08794e+00
       H -3.10256e+01 -1.49187e+01 -5.98888e+00
       H -3.23356e+01 -1.52906e+01 -6.53375e+00
       O -2.36740e+01 -2.09860e+01 -1.90696e+01
       H -2.33964e+01 -2.16612e+01 -1.97330e+01
       H -2.37432e+01 -2.14177e+01 -1.81702e+01
       O  9.83459e+00 -1.82208e+00  2.92371e+00
       H  9.27514e+00 -1.75421e+00  2.09829e+00
       H  1.06242e+01 -1.28980e+00  2.56534e+00
       O -2.44663e+00  6.92061e+00  1.11099e+01
       H -2.11935e+00  7.76963e+00  1.07408e+01
       H -3.00174e+00  6.65629e+00  1.03402e+01
       O  4.51027e-01 -2.57720e+00  1.83643e+00
       H  6.15954e-01 -2.10239e+00  1.05892e+00
       H  9.56640e-01 -3.40713e+00  1.62033e+00
       O -9.53682e+00 -6.73178e+00 -1.35134e+01
       H -1.02285e+01 -6.37439e+00 -1.28506e+01
       H -9.58780e+00 -6.02349e+00 -1.41650e+01
       O -8.75394e+00  1.86516e+01 -2.76641e+01
       H -9.67991e+00  1.85459e+01 -2.79712e+01
       H -8.97817e+00  1.88216e+01 -2.67589e+01
       O -1.72914e+01 -7.34991e+00 -4.51369e+00
       H -1.80062e+01 -6.75916e+00 -4.82841e+00
       H -1.69211e+01 -6.71035e+00 -3.85409e+00
       O -7.17599e+00 -3.48480e+01 -3.13700e+01
       H -6.75917e+00 -3.56730e+01 -3.16721e+01
       H -8.14486e+00 -3.48346e+01 -3.16663e+01
       O -1.49516e+01 -2.80490e+01 -1.23365e+01
       H -1.50386e+01 -2.86756e+01 -1.15854e+01
       H -1.51388e+01 -2.71596e+01 -1.19920e+01
       O -1.69747e+01 -4.55833e+01 -1.09028e+01
       H -1.64918e+01 -4.54737e+01 -1.17857e+01
       H -1.65061e+01 -4.63856e+01 -1.04655e+01
       O  4.93476e+00 -1.76623e+00 -5.76972e+00
       H  4.28243e+00 -1.16358e+00 -5.37961e+00
       H  5.31869e+00 -1.24931e+00 -6.54749e+00
       O -2.72144e+00 -2.63632e+01 -3.49757e+01
       H -3.39543e+00 -2.69757e+01 -3.45327e+01
       H -3.22015e+00 -2.57779e+01 -3.55547e+01
       O  1.13172e+01  9.73132e-01 -2.13735e+01
       H  1.07683e+01  6.90137e-01 -2.05893e+01
       H  1.05703e+01  1.25642e+00 -2.19009e+01
       O -4.09527e+01 -1.64810e+01 -1.31810e+01
       H -4.03406e+01 -1.71938e+01 -1.34995e+01
       H -4.17855e+01 -1.69702e+01 -1.32365e+01
       O -1.33908e+01 -4.81312e+01 -2.11786e+01
       H -1.39353e+01 -4.85583e+01 -2.04326e+01
       H -1.25517e+01 -4.86662e+01 -2.11992e+01
       O -1.75293e+01 -2.62955e+01 -9.07607e+00
       H -1.79076e+01 -2.71811e+01 -9.14583e+00
       H -1.74193e+01 -2.61544e+01 -8.06740e+00
       O  6.93366e+00 -2.20799e+01 -2.06451e+01
       H  6.61208e+00 -2.12007e+01 -2.03826e+01
       H  7.71629e+00 -2.21794e+01 -2.00103e+01
       O -2.33267e+01 -3.97972e+01 -1.55769e+01
       H -2.40781e+01 -3.91675e+01 -1.56280e+01
       H -2.27796e+01 -3.92920e+01 -1.50253e+01
       O -3.42306e+01 -1.39630e+01 -2.17162e+01
       H -3.45011e+01 -1.48612e+01 -2.16557e+01
       H -3.51294e+01 -1.35435e+01 -2.16009e+01
       O -1.53066e+01 -1.61249e+01 -3.65950e+01
       H -1.51141e+01 -1.70366e+01 -3.62265e+01
       H -1.44195e+01 -1.57458e+01 -3.66224e+01
       O -1.70100e+01  1.37255e+01 -1.66159e+01
       H -1.70052e+01  1.47105e+01 -1.65671e+01
       H -1.63657e+01  1.36235e+01 -1.73612e+01
       O -2.39776e+01 -9.61010e+00 -1.00581e+01
       H -2.38328e+01 -8.84899e+00 -9.50151e+00
       H -2.47915e+01 -9.30555e+00 -1.05548e+01
       O -2.19319e+01 -2.88133e+01  1.29190e+01
       H -2.26124e+01 -2.94915e+01  1.27376e+01
       H -2.23497e+01 -2.81398e+01  1.34214e+01
       O  8.76467e+00 -9.76685e+00  4.48693e+00
       H  9.72346e+00 -9.76284e+00  4.20345e+00
       H  8.75860e+00 -9.81508e+00  5.44179e+00
       O -1.26689e+01 -2.56058e+01 -3.52222e+01
       H -1.32956e+01 -2.51499e+01 -3.58053e+01
       H -1.23947e+01 -2.64098e+01 -3.57222e+01
       O -8.75854e+00 -2.43587e+01 -3.69824e+01
       H -9.50727e+00 -2.39950e+01 -3.64884e+01
       H -8.08346e+00 -2.41372e+01 -3.63733e+01
       O -2.63014e+01 -3.80704e+01  1.13239e+01
       H -2.55042e+01 -3.78229e+01  1.07878e+01
       H -2.58518e+01 -3.82838e+01  1.21625e+01
       O -2.81648e+01 -2.35854e+01 -3.28212e+01
       H -2.74079e+01 -2.40719e+01 -3.24764e+01
       H -2.84612e+01 -2.32209e+01 -3.19939e+01
       O -3.78366e+00 -1.51581e+01  1.97235e+01
       H -3.93432e+00 -1.47943e+01  1.88161e+01
       H -4.67302e+00 -1.54683e+01  1.98835e+01
       O -3.86846e+01 -4.47156e+00 -4.81751e+00
       H -3.95719e+01 -4.35640e+00 -4.41698e+00
       H -3.82613e+01 -5.14622e+00 -4.15400e+00
       O -1.61863e+01 -2.60410e+01 -6.59537e+00
       H -1.66692e+01 -2.64273e+01 -5.82128e+00
       H -1.53952e+01 -2.59263e+01 -6.19115e+00
       O -2.15486e+01 -2.45541e+01 -1.96005e+01
       H -2.15767e+01 -2.39100e+01 -1.88555e+01
       H -2.16281e+01 -2.39208e+01 -2.03549e+01
       O -4.29017e+00 -8.17030e+00 -2.41329e+01
       H -5.07493e+00 -7.73406e+00 -2.37927e+01
       H -3.63216e+00 -7.50361e+00 -2.39869e+01
       O -9.07310e+00 -2.03891e+01 -1.25368e+01
       H -9.93635e+00 -2.07229e+01 -1.25636e+01
       H -9.16611e+00 -1.96835e+01 -1.32167e+01
       O -3.36418e+01  2.24171e+01 -1.39633e+01
       H -3.41117e+01  2.19312e+01 -1.46305e+01
       H -3.35925e+01  2.17912e+01 -1.31848e+01
       O -2.02491e+00 -1.68508e+01 -2.92147e+01
       H -2.59009e+00 -1.62539e+01 -2.86645e+01
       H -2.06488e+00 -1.77327e+01 -2.88333e+01
       O -6.25654e+00 -2.97184e+01 -4.68870e+01
       H -7.05399e+00 -3.01056e+01 -4.72404e+01
       H -6.36738e+00 -3.00488e+01 -4.59360e+01
       O -1.48739e+01 -1.99881e+01 -1.78702e+01
       H -1.55533e+01 -1.93098e+01 -1.76674e+01
       H -1.40441e+01 -1.95240e+01 -1.77016e+01
       O -6.99286e+00  2.05924e+00 -1.75166e+01
       H -7.85092e+00  1.91872e+00 -1.79285e+01
       H -7.34556e+00  2.36103e+00 -1.66550e+01
       O -1.33771e+01 -2.61480e+01 -4.11272e+01
       H -1.25312e+01 -2.56825e+01 -4.10383e+01
       H -1.34148e+01 -2.64490e+01 -4.20417e+01
       O -4.09674e+01 -3.13137e+01 -9.47998e+00
       H -4.14479e+01 -3.05174e+01 -9.18950e+00
       H -4.14795e+01 -3.20450e+01 -8.98991e+00
       O -1.87003e+01 -1.84477e+01  1.23709e+01
       H -1.96783e+01 -1.87324e+01  1.24272e+01
       H -1.83895e+01 -1.86762e+01  1.33096e+01
       O  1.82728e+00  7.60185e+00  1.10307e+00
       H  2.19548e+00  8.50543e+00  8.10313e-01
       H  1.61264e+00  7.83615e+00  2.02769e+00
       O -2.52765e+01 -3.55418e+01 -1.09698e+01
       H -2.49236e+01 -3.62865e+01 -1.04376e+01
       H -2.59754e+01 -3.59355e+01 -1.15076e+01
       O  1.71566e+00 -8.22379e+00  1.60348e+01
       H  1.02499e+00 -8.83948e+00  1.62937e+01
       H  1.63806e+00 -7.50829e+00  1.67326e+01
       O -1.20335e+01 -1.15396e+01 -6.76736e+00
       H -1.25067e+01 -1.22646e+01 -7.14954e+00
       H -1.28026e+01 -1.10257e+01 -6.39231e+00
       O  1.23261e+01  1.61254e+01  6.22370e+00
       H  1.26834e+01  1.52788e+01  6.48436e+00
       H  1.30962e+01  1.63917e+01  5.65025e+00
       O -9.02574e+00 -1.23115e+01 -3.22623e+01
       H -9.52943e+00 -1.30919e+01 -3.25585e+01
       H -8.52031e+00 -1.20868e+01 -3.31297e+01
       O -7.07222e+00 -7.49770e+00 -3.41209e+01
       H -6.23635e+00 -7.82239e+00 -3.38299e+01
       H -7.39513e+00 -8.16197e+00 -3.48287e+01
       O -2.06494e+01 -5.15878e+00 -1.54762e+01
       H -1.98659e+01 -5.35863e+00 -1.60606e+01
       H -2.08256e+01 -5.95588e+00 -1.49642e+01
       O -2.29684e+01 -2.87847e+01 -4.06294e+01
       H -2.22910e+01 -2.92693e+01 -4.01117e+01
       H -2.23900e+01 -2.85831e+01 -4.13463e+01
       O -4.64257e+00  5.28419e+00  6.40255e+00
       H -4.83805e+00  5.46223e+00  5.47248e+00
       H -5.41153e+00  4.68625e+00  6.67492e+00
       O -1.97799e+01 -2.53095e+01 -1.49666e+01
       H -1.92720e+01 -2.60556e+01 -1.53231e+01
       H -1.90036e+01 -2.47567e+01 -1.47433e+01
       O  5.13022e+00 -8.03126e+00 -9.30192e+00
       H  4.63106e+00 -8.81574e+00 -9.41422e+00
       H  5.76184e+00 -8.36087e+00 -8.65778e+00
       O -1.36322e+00 -1.43102e+01 -5.82458e+00
       H -2.07633e+00 -1.48977e+01 -6.12533e+00
       H -1.06592e+00 -1.46152e+01 -4.88003e+00
       O  1.97042e+01  1.75186e+01 -1.77197e+01
       H  2.01342e+01  1.66478e+01 -1.76575e+01
       H  1.90766e+01  1.74569e+01 -1.85225e+01
       O -1.46590e+01 -2.24678e+01 -1.00920e+01
       H -1.51346e+01 -2.27797e+01 -9.31879e+00
       H -1.38372e+01 -2.30278e+01 -9.99291e+00
       O -2.03557e+01 -4.04775e+01 -2.24700e+00
       H -1.97827e+01 -3.96454e+01 -2.14084e+00
       H -2.04194e+01 -4.07598e+01 -1.31978e+00
       O -8.66663e+00 -3.44673e+01 -1.56530e+01
       H -9.32433e+00 -3.38258e+01 -1.53915e+01
       H -7.95741e+00 -3.44470e+01 -1.49256e+01
       O -2.44295e+00 -2.44138e+01 -1.53298e+01
       H -3.28027e+00 -2.39184e+01 -1.54508e+01
       H -2.59841e+00 -2.50805e+01 -1.46550e+01
       O -2.94417e+01 -7.98784e+00 -2.77814e+01
       H -2.96618e+01 -7.30960e+00 -2.71263e+01
       H -2.93220e+01 -7.47427e+00 -2.86243e+01
       O -2.11808e+01 -3.04011e+01 -2.32286e+01
       H -2.19758e+01 -3.03114e+01 -2.37742e+01
       H -2.07067e+01 -3.10556e+01 -2.37278e+01
       O -1.49472e+01 -3.78242e+00 -3.53885e+00
       H -1.45505e+01 -3.31815e+00 -2.81944e+00
       H -1.42919e+01 -4.43889e+00 -3.78429e+00
       O -2.02665e+01 -5.48700e+01 -4.95321e+01
       H -1.94675e+01 -5.47940e+01 -4.89465e+01
       H -2.06254e+01 -5.39603e+01 -4.94862e+01
       O -7.40655e+00 -2.69486e+01 -1.26634e+01
       H -7.79367e+00 -2.77603e+01 -1.29753e+01
       H -6.63670e+00 -2.69593e+01 -1.32682e+01
       O -1.26942e+01 -3.40777e+01 -1.51174e+01
       H -1.21920e+01 -3.47941e+01 -1.56180e+01
       H -1.23303e+01 -3.41833e+01 -1.41994e+01
       O -1.11196e+01 -1.61041e+00 -1.96297e+01
       H -1.11594e+01 -2.56585e+00 -1.96399e+01
       H -1.09723e+01 -1.42400e+00 -1.86671e+01
       O -2.43997e+01 -1.52123e+01 -1.38644e+01
       H -2.35524e+01 -1.49556e+01 -1.35125e+01
       H -2.50592e+01 -1.50247e+01 -1.31311e+01
       O -1.10726e+01 -1.98608e+01 -1.84605e-01
       H -1.02245e+01 -1.94270e+01  1.12739e-01
       H -1.13349e+01 -1.93857e+01 -1.01866e+00
       O -8.98339e+00 -2.07203e+01 -5.30312e+01
       H -9.47353e+00 -2.15615e+01 -5.28859e+01
       H -9.10442e+00 -2.02555e+01 -5.22436e+01
       O -7.37858e+00 -1.94449e+01 -1.59301e+01
       H -7.98411e+00 -2.00260e+01 -1.64258e+01
       H -7.87429e+00 -1.90142e+01 -1.51933e+01
       O -2.45347e+01 -2.69564e+01 -1.13927e+01
       H -2.43980e+01 -2.63066e+01 -1.06958e+01
       H -2.55120e+01 -2.69091e+01 -1.15779e+01
       O -2.52050e+01 -1.38451e+01 -2.43670e+01
       H -2.48575e+01 -1.44247e+01 -2.36023e+01
       H -2.60621e+01 -1.35572e+01 -2.39649e+01
       O  2.27549e+00 -5.04928e+00 -2.44903e+01
       H  2.14009e+00 -5.88844e+00 -2.40273e+01
       H  3.23853e+00 -5.11401e+00 -2.47601e+01
       O -3.92995e+00 -2.42859e+00  1.98722e+01
       H -3.96832e+00 -3.43985e+00  1.96045e+01
       H -3.21940e+00 -2.18362e+00  1.92325e+01
       O -2.54712e+01 -2.56980e+01  1.41957e+01
       H -2.62061e+01 -2.62258e+01  1.38390e+01
       H -2.55745e+01 -2.47702e+01  1.38869e+01
       O -2.84477e+01 -4.09836e-02 -1.80821e+00
       H -2.87744e+01  3.49880e-01 -2.64699e+00
       H -2.92087e+01 -6.09475e-01 -1.60722e+00
       O -4.46676e+01 -1.72520e+01 -9.46482e+00
       H -4.50166e+01 -1.63526e+01 -9.40502e+00
       H -4.37269e+01 -1.70480e+01 -9.67438e+00
       O  1.15842e+01 -6.08001e+00  6.59881e+00
       H  1.07123e+01 -6.30820e+00  6.95441e+00
       H  1.17263e+01 -5.26138e+00  7.10601e+00
       O -3.30277e+01  1.59583e+00 -5.67372e+01
       H -3.35464e+01  2.37696e+00 -5.65238e+01
       H -3.34074e+01  8.10873e-01 -5.62985e+01
       O -7.83235e+00 -2.39553e+01 -1.26547e+01
       H -7.73279e+00 -2.49284e+01 -1.26696e+01
       H -8.03566e+00 -2.37907e+01 -1.36088e+01
       O -7.24675e-01 -1.51684e+01 -3.38350e+01
       H -1.36165e+00 -1.58234e+01 -3.34115e+01
       H -1.33229e+00 -1.46900e+01 -3.43963e+01
       O -5.86592e+01 -1.48870e+01 -1.12014e+00
       H -5.78146e+01 -1.46435e+01 -1.54972e+00
       H -5.82915e+01 -1.55886e+01 -5.48322e-01
       O -7.47226e-01 -1.29970e+01  9.13049e+00
       H -9.67141e-01 -1.32002e+01  8.23289e+00
       H  1.84383e-01 -1.27986e+01  9.18308e+00
       O -7.14441e+00 -5.97469e+00  2.93655e+01
       H -6.20226e+00 -5.80564e+00  2.94502e+01
       H -7.39774e+00 -5.31876e+00  2.86519e+01
       O -1.72915e+01 -3.62020e+01 -4.53390e+01
       H -1.74004e+01 -3.52773e+01 -4.49913e+01
       H -1.81190e+01 -3.62527e+01 -4.58710e+01
       O -1.59184e+01 -1.15415e+01 -8.52686e+00
       H -1.63123e+01 -1.24120e+01 -8.33863e+00
       H -1.64036e+01 -1.09943e+01 -7.94740e+00
       O -1.35889e+01 -1.04284e+01  8.00388e+00
       H -1.38906e+01 -1.11796e+01  8.58302e+00
       H -1.35330e+01 -9.73321e+00  8.73106e+00
       O -2.09732e+01 -1.13763e+00 -9.39206e+00
       H -2.01670e+01 -1.06332e+00 -8.85189e+00
       H -2.12277e+01 -1.96232e-01 -9.57527e+00
       O -3.62034e+01 -1.10308e+00  5.53479e-01
       H -3.64051e+01 -2.23897e-01  2.12047e-01
       H -3.61609e+01 -1.56946e+00 -2.86542e-01
       O -2.12948e+01 -2.04897e+01 -3.86736e+01
       H -2.11685e+01 -2.08346e+01 -3.77620e+01
       H -2.08728e+01 -1.96464e+01 -3.85847e+01
       O -1.65675e+01 -8.12839e+00  2.57947e+00
       H -1.61985e+01 -7.60315e+00  1.76561e+00
       H -1.74728e+01 -8.42614e+00  2.28819e+00
       O -1.07882e+01 -3.27757e+01 -2.88920e-01
       H -1.01313e+01 -3.34140e+01 -5.57451e-01
       H -1.06020e+01 -3.26661e+01  6.58459e-01
       O  6.20101e+00 -5.28307e+01 -3.55073e+00
       H  6.73431e+00 -5.28841e+01 -2.72268e+00
       H  5.82892e+00 -5.19515e+01 -3.39711e+00
       O -6.20648e+00 -4.91151e+00 -7.43182e-01
       H -6.47786e+00 -5.38138e+00 -1.53108e+00
       H -6.14240e+00 -5.69416e+00 -2.03593e-01
       O -2.62581e+01 -1.95640e+01  2.76812e+00
       H -2.60544e+01 -2.04966e+01  2.47407e+00
       H -2.70507e+01 -1.95996e+01  3.31028e+00
       O  7.62496e+00  6.32094e+00 -4.78354e+00
       H  8.42332e+00  6.77320e+00 -4.52882e+00
       H  7.66034e+00  5.62982e+00 -4.15437e+00
       O -2.65056e+00 -3.05020e+01 -1.41789e+01
       H -1.82678e+00 -3.07901e+01 -1.36954e+01
       H -2.39529e+00 -3.08790e+01 -1.50125e+01
       O -1.93795e+01 -2.61455e+01 -1.22034e+01
       H -1.94623e+01 -2.71029e+01 -1.24942e+01
       H -1.95326e+01 -2.56356e+01 -1.30375e+01
       O -2.39749e+01 -3.53993e+01 -1.68573e+01
       H -2.31261e+01 -3.57533e+01 -1.70417e+01
       H -2.43701e+01 -3.55686e+01 -1.77375e+01
       O  3.18187e+00 -8.77866e+00  1.01954e+00
       H  3.50575e+00 -7.99086e+00  6.63372e-01
       H  2.53195e+00 -8.28940e+00  1.67299e+00
       O -7.42478e+00 -1.65314e+01 -1.09090e+01
       H -6.73269e+00 -1.71480e+01 -1.12098e+01
       H -8.05784e+00 -1.70587e+01 -1.04245e+01
       O -8.44176e+00 -2.61133e+01 -1.59788e+01
       H -7.65365e+00 -2.62583e+01 -1.64497e+01
       H -8.21934e+00 -2.66163e+01 -1.51846e+01
       O  3.74474e+00 -1.21412e+01 -5.98400e+00
       H  3.49983e+00 -1.29328e+01 -6.38005e+00
       H  2.94909e+00 -1.20743e+01 -5.45176e+00
       O -7.38786e+00 -2.99845e+01 -1.48965e+01
       H -7.11579e+00 -3.02139e+01 -1.58282e+01
       H -8.34549e+00 -2.98486e+01 -1.49784e+01
       O -2.84001e+01 -1.58885e+01 -2.08127e+01
       H -2.88842e+01 -1.50134e+01 -2.06993e+01
       H -2.76930e+01 -1.58267e+01 -2.01167e+01
       O -3.42738e+01  2.14559e+00 -4.59153e+00
       H -3.49519e+01  1.92664e+00 -3.95087e+00
       H -3.47078e+01  1.86646e+00 -5.38707e+00
       O -8.32095e+00  7.39204e-01  5.46365e+00
       H -8.55191e+00 -1.65796e-01  5.76357e+00
       H -7.42027e+00  6.00700e-01  5.04692e+00
       O -3.01908e+01 -8.59963e+00 -1.38608e+01
       H -2.98909e+01 -9.28717e+00 -1.32449e+01
       H -3.06578e+01 -8.07731e+00 -1.31313e+01
       O  1.13322e+00  5.59964e+00 -2.82082e+01
       H  5.20681e-01  5.04283e+00 -2.87374e+01
       H  5.95786e-01  5.94360e+00 -2.74587e+01
       O -2.34366e+01 -6.01617e-01 -3.40028e+00
       H -2.26760e+01 -1.04626e+00 -2.97687e+00
       H -2.40119e+01 -3.10535e-01 -2.68249e+00
       O -2.37145e+01 -2.16110e+01 -8.03981e+00
       H -2.30687e+01 -2.20587e+01 -7.42942e+00
       H -2.46018e+01 -2.19101e+01 -7.77877e+00
       O  7.87253e+00  1.22102e+01  1.05439e+01
       H  8.27548e+00  1.29679e+01  1.09975e+01
       H  7.18340e+00  1.19584e+01  1.11933e+01
       O -2.03926e+01 -1.19241e+01 -1.43760e+00
       H -2.03775e+01 -1.21895e+01 -4.64871e-01
       H -2.01920e+01 -1.10375e+01 -1.38849e+00
       O -7.56515e-01 -1.95864e+01 -3.31696e+01
       H -1.00150e+00 -1.92570e+01 -3.40596e+01
       H  1.94697e-01 -1.94488e+01 -3.31423e+01
       O  8.79333e-01 -9.43737e+00 -9.47680e-01
       H  1.26503e+00 -8.57404e+00 -1.16210e+00
       H  1.24502e+00 -9.55623e+00 -7.33738e-02
       O  1.39425e+00 -1.91192e+01  1.35840e+00
       H  8.46166e-01 -1.97490e+01  9.24091e-01
       H  2.28999e+00 -1.92368e+01  1.07242e+00
       O -2.96158e+01 -1.59388e+01 -6.02005e+00
       H -2.93158e+01 -1.54787e+01 -6.76374e+00
       H -2.88508e+01 -1.65455e+01 -5.83101e+00
       O -1.01616e+01 -8.48740e+00 -2.91775e+01
       H -9.40794e+00 -8.50455e+00 -2.97835e+01
       H -9.76034e+00 -8.83351e+00 -2.83836e+01
       O -2.15847e+01 -1.96938e+01 -4.06946e+00
       H -2.06090e+01 -1.95855e+01 -3.87151e+00
       H -2.17993e+01 -2.05424e+01 -3.67799e+00
       O -1.24175e+01 -1.81214e+01 -1.76754e+01
       H -1.17551e+01 -1.73627e+01 -1.75545e+01
       H -1.25896e+01 -1.80623e+01 -1.86488e+01
       O -2.33918e+01  1.52969e+01 -2.93926e+01
       H -2.33058e+01  1.46889e+01 -2.86088e+01
       H -2.30333e+01  1.46978e+01 -3.00795e+01
       O  1.17737e+01 -1.71823e+01 -2.80478e+01
       H  1.17186e+01 -1.62764e+01 -2.82622e+01
       H  1.27114e+01 -1.72122e+01 -2.76956e+01
       O -1.10228e+01 -3.40635e+01 -1.28004e+01
       H -1.04336e+01 -3.48228e+01 -1.28033e+01
       H -1.03614e+01 -3.33735e+01 -1.30029e+01
       O -1.87394e+01 -3.25185e+00  8.58046e+00
       H -1.78843e+01 -3.27106e+00  8.07577e+00
       H -1.84166e+01 -3.39983e+00  9.49071e+00
       O -3.83360e+01 -3.53267e+01 -1.57207e+01
       H -3.92348e+01 -3.51734e+01 -1.57229e+01
       H -3.82708e+01 -3.61497e+01 -1.62453e+01
       O -7.94384e+00 -1.08783e+01 -1.90477e+01
       H -7.14303e+00 -1.03583e+01 -1.89039e+01
       H -7.85834e+00 -1.13804e+01 -1.82275e+01
       O -4.43048e+01 -3.71387e+01 -2.59794e+01
       H -4.40115e+01 -3.77304e+01 -2.52081e+01
       H -4.47370e+01 -3.77456e+01 -2.65845e+01
       O -5.56588e+01 -2.14940e+01 -8.01616e+00
       H -5.53399e+01 -2.24344e+01 -8.16229e+00
       H -5.57286e+01 -2.13579e+01 -7.07474e+00
       O  5.45385e+00 -2.90669e+00  2.96854e+00
       H  5.75683e+00 -2.02437e+00  3.29381e+00
       H  4.65270e+00 -2.95578e+00  3.51775e+00
       O -4.96980e+00 -2.79073e+01 -4.47198e+01
       H -4.27768e+00 -2.72242e+01 -4.50250e+01
       H -4.37849e+00 -2.86756e+01 -4.47088e+01
       O -3.99098e+00 -2.46479e+01 -2.19610e+01
       H -3.92388e+00 -2.38795e+01 -2.25278e+01
       H -4.88693e+00 -2.44484e+01 -2.16156e+01
       O -5.56820e+00 -1.73920e+01  5.69272e+00
       H -5.86581e+00 -1.68120e+01  4.93590e+00
       H -4.98730e+00 -1.68102e+01  6.15170e+00
       O -5.77445e+01 -2.33138e+01 -5.64442e+00
       H -5.86410e+01 -2.33820e+01 -6.03214e+00
       H -5.73018e+01 -2.41158e+01 -6.00538e+00
       O -2.25294e+01 -1.70170e+01 -8.98211e-01
       H -2.24453e+01 -1.61781e+01 -3.60296e-01
       H -2.32644e+01 -1.74357e+01 -3.96378e-01
       O -2.74249e+01  2.32483e+01 -1.37026e+01
       H -2.81521e+01  2.39071e+01 -1.38568e+01
       H -2.78946e+01  2.27126e+01 -1.30406e+01
       O  1.13868e+01  5.13571e+00 -7.74608e-01
       H  1.09999e+01  4.92632e+00  1.18500e-01
       H  1.15251e+01  6.10067e+00 -7.65849e-01
       O -1.64149e+01  4.58054e+00  9.66035e+00
       H -1.70806e+01  4.15285e+00  9.19282e+00
       H -1.63062e+01  3.98251e+00  1.04240e+01
       O -2.85207e+01 -1.35761e+01 -1.00263e+01
       H -2.84078e+01 -1.42791e+01 -9.37101e+00
       H -2.76227e+01 -1.32824e+01 -1.00310e+01
       O -4.67626e+01 -2.37521e+01  1.08709e+01
       H -4.72838e+01 -2.37866e+01  1.16988e+01
       H -4.67090e+01 -2.46813e+01  1.05704e+01
       O -4.22242e+00  8.95282e+00 -1.75965e+01
       H -4.16828e+00  9.89879e+00 -1.74750e+01
       H -4.61214e+00  8.73050e+00 -1.67541e+01
       O -1.17352e+01 -2.75321e+01 -3.93455e+01
       H -1.23851e+01 -2.69588e+01 -3.97341e+01
       H -1.13530e+01 -2.79213e+01 -4.01432e+01
       O -7.63228e+00 -2.74600e+01 -2.17543e+00
       H -6.80599e+00 -2.80382e+01 -2.14222e+00
       H -8.29609e+00 -2.81021e+01 -1.91895e+00
       O -9.64341e+00  2.01619e+00 -2.64050e+01
       H -1.03015e+01  1.29811e+00 -2.65311e+01
       H -8.98921e+00  1.73707e+00 -2.71110e+01
       O -1.62661e+01 -2.36791e+00 -5.66087e+00
       H -1.56180e+01 -2.81799e+00 -5.18306e+00
       H -1.69611e+01 -2.22379e+00 -5.01166e+00
       O  1.62759e-01 -9.83220e+00  1.74800e+00
       H -5.67595e-01 -9.46745e+00  1.16264e+00
       H -3.01782e-01 -9.85272e+00  2.59494e+00
       O -3.37755e+01 -1.12544e+00 -2.95224e+01
       H -3.47770e+01 -1.27009e+00 -2.96591e+01
       H -3.37413e+01 -9.40318e-02 -2.96044e+01
       O -4.57142e+01 -1.93661e+01 -1.10677e+01
       H -4.56320e+01 -1.84654e+01 -1.07148e+01
       H -4.47692e+01 -1.94838e+01 -1.13962e+01
       O -3.20706e+01 -2.85046e+01 -1.03723e+01
       H -3.10775e+01 -2.83526e+01 -1.02345e+01
       H -3.18986e+01 -2.91810e+01 -1.10669e+01
       O -1.64738e+01 -1.28269e+01 -4.83610e+01
       H -1.56017e+01 -1.30566e+01 -4.78323e+01
       H -1.67077e+01 -1.19272e+01 -4.80054e+01
       O -2.12471e+01 -4.86607e+00 -1.48969e+00
       H -2.05725e+01 -4.16306e+00 -1.16256e+00
       H -2.18829e+01 -4.32775e+00 -1.97583e+00
       O -2.92399e+01 -2.67508e+01 -4.00495e+01
       H -2.98089e+01 -2.70336e+01 -4.07737e+01