11115
# CELL(abcABC):   47.66706    47.66706    47.66706    90.00000    90.00000    90.00000  Step:       10000  Bead:       0 positions{angstrom}  cell{angstrom}
       C  5.65970e-01 -1.90947e+00  6.90523e+00
       H  5.37180e-01 -9.76264e-01  6.31907e+00
       H  8.47650e-01 -1.77726e+00  7.94058e+00
       H -5.68128e-01 -2.22522e+00  6.94807e+00
       C  1.36304e+00 -2.88555e+00  6.19748e+00
       O  1.33426e+00 -3.97841e+00  6.54448e+00
       N  2.17496e+00 -2.40105e+00  5.25870e+00
       H  2.19929e+00 -1.44648e+00  4.99045e+00
       C  3.25884e+00 -3.14506e+00  4.54356e+00
       H  3.12011e+00 -4.19606e+00  4.79657e+00
       C  3.20229e+00 -3.03241e+00  3.04225e+00
       H  3.29655e+00 -1.96368e+00  2.74862e+00
       H  2.14085e+00 -3.28590e+00  2.69196e+00
       C  3.96335e+00 -3.99872e+00  2.23278e+00
       O  4.24241e+00 -3.88851e+00  1.05574e+00
       O  4.18710e+00 -5.11827e+00  2.85657e+00
       H  4.53166e+00 -5.83254e+00  2.20464e+00
       C  4.66022e+00 -2.69974e+00  5.10751e+00
       O  5.56002e+00 -2.35489e+00  4.35606e+00
       N  4.88737e+00 -2.76876e+00  6.47382e+00
       H  5.83135e+00 -2.47240e+00  6.78984e+00
       H  4.09906e+00 -2.83460e+00  7.05651e+00
       O -1.82332e+01 -1.45893e+01 -5.24638e+00
       H -1.75759e+01 -1.40297e+01 -5.66684e+00
       H -1.90773e+01 -1.43556e+01 -5.70447e+00
       O -2.37336e+01 -1.36430e+01 -2.53317e+01
       H -2.46072e+01 -1.39717e+01 -2.49587e+01
       H -2.30892e+01 -1.40111e+01 -2.46369e+01
       O -2.04039e+01 -8.65095e+00 -4.20374e+00
       H -1.95565e+01 -8.18725e+00 -4.25891e+00
       H -2.02926e+01 -8.87885e+00 -3.32504e+00
       O -1.70259e+01 -2.56571e+01 -1.58989e+01
       H -1.61237e+01 -2.58315e+01 -1.55239e+01
       H -1.70544e+01 -2.63565e+01 -1.65787e+01
       O -1.80717e+01 -1.25989e+01 -1.43524e+01
       H -1.80258e+01 -1.34358e+01 -1.39073e+01
       H -1.79060e+01 -1.19331e+01 -1.36170e+01
       O -2.59881e+01 -2.12777e+01 -2.03507e+01
       H -2.54517e+01 -2.14629e+01 -2.11845e+01
       H -2.65388e+01 -2.05542e+01 -2.07844e+01
       O -2.40765e+01 -2.33304e+01 -1.53307e+01
       H -2.39562e+01 -2.37319e+01 -1.61958e+01
       H -2.31730e+01 -2.33814e+01 -1.49550e+01
       O -2.08982e+01 -1.77196e+01 -9.87034e+00
       H -2.06280e+01 -1.84158e+01 -1.05299e+01
       H -2.00005e+01 -1.75984e+01 -9.50323e+00
       O -1.50063e+01 -2.60992e+01 -2.36001e+01
       H -1.45844e+01 -2.62781e+01 -2.44541e+01
       H -1.59108e+01 -2.59391e+01 -2.39405e+01
       O -5.62387e+00 -2.59376e+01 -8.70440e+00
       H -4.78943e+00 -2.63031e+01 -8.30386e+00
       H -5.33510e+00 -2.50193e+01 -8.65207e+00
       O -1.16143e+01 -1.72896e+01 -1.89117e+01
       H -1.15037e+01 -1.63023e+01 -1.90744e+01
       H -1.13408e+01 -1.76508e+01 -1.97733e+01
       O -6.73094e+00  2.51986e+00 -6.49385e+00
       H -6.78831e+00  2.59986e+00 -5.48215e+00
       H -7.58544e+00  2.21877e+00 -6.77179e+00
       O -9.37586e+00 -1.94981e+01 -2.08373e+01
       H -9.01720e+00 -2.01211e+01 -2.14121e+01
       H -1.02507e+01 -1.92862e+01 -2.12973e+01
       O -1.72553e+01 -4.98878e+00 -8.24648e+00
       H -1.66508e+01 -4.80475e+00 -8.98248e+00
       H -1.71938e+01 -4.17098e+00 -7.67604e+00
       O -1.47420e+01 -3.21260e+01 -2.59460e+01
       H -1.44330e+01 -3.13358e+01 -2.63429e+01
       H -1.44745e+01 -3.28014e+01 -2.65873e+01
       O -3.67578e+00 -2.64414e+01 -1.31891e+01
       H -4.52851e+00 -2.67761e+01 -1.27357e+01
       H -3.74848e+00 -2.69052e+01 -1.40941e+01
       O -2.39498e+01 -2.63063e+01 -8.98644e+00
       H -2.29783e+01 -2.64707e+01 -8.96632e+00
       H -2.41401e+01 -2.61999e+01 -9.93350e+00
       O -1.26731e+01 -1.63646e+01 -2.15789e+01
       H -1.33290e+01 -1.70538e+01 -2.15550e+01
       H -1.23833e+01 -1.62379e+01 -2.25318e+01
       O -1.93332e+01 -1.49717e+01 -2.47927e+00
       H -1.87104e+01 -1.56973e+01 -2.17181e+00
       H -1.90310e+01 -1.48951e+01 -3.38390e+00
       O -1.37690e+01 -8.33064e+00 -2.88490e+01
       H -1.31016e+01 -7.94735e+00 -2.94303e+01
       H -1.34012e+01 -9.21265e+00 -2.86900e+01
       O -1.29550e+01 -2.83613e+01 -4.79691e+00
       H -1.37000e+01 -2.84120e+01 -4.15475e+00
       H -1.27786e+01 -2.73714e+01 -4.95152e+00
       O -3.45118e+01 -8.63412e+00 -2.40450e+01
       H -3.53501e+01 -8.92715e+00 -2.36695e+01
       H -3.44739e+01 -9.05283e+00 -2.49616e+01
       O -1.58138e+00 -4.79439e+00 -2.32975e+01
       H -2.03017e+00 -4.36021e+00 -2.40157e+01
       H -8.83033e-01 -5.36552e+00 -2.37955e+01
       O -3.11629e+01 -1.09509e+01 -1.14792e+01
       H -3.17557e+01 -1.06630e+01 -1.07175e+01
       H -3.07363e+01 -1.01040e+01 -1.17928e+01
       O -1.30285e+01 -3.31567e+01 -2.39893e+01
       H -1.36305e+01 -3.36591e+01 -2.34050e+01
       H -1.36245e+01 -3.26915e+01 -2.46245e+01
       O -1.83377e+01 -1.45557e+01 -1.23911e+01
       H -1.92977e+01 -1.47828e+01 -1.21812e+01
       H -1.81647e+01 -1.41052e+01 -1.15405e+01
       O -9.52831e+00  9.97602e+00 -9.41029e+00
       H -1.04261e+01  1.01183e+01 -9.77722e+00
       H -9.58238e+00  1.04856e+01 -8.57616e+00
       O -1.68228e+01 -1.01737e+00 -2.26855e+00
       H -1.61979e+01 -2.57819e-01 -2.25805e+00
       H -1.62627e+01 -1.57137e+00 -2.84673e+00
       O -1.63536e+01 -1.24654e+01 -6.45441e+00
       H -1.55047e+01 -1.22124e+01 -6.74548e+00
       H -1.63513e+01 -1.19813e+01 -5.56372e+00
       O -1.01875e+01 -1.83020e+01 -1.43128e+01
       H -9.34970e+00 -1.87989e+01 -1.41584e+01
       H -1.07767e+01 -1.89122e+01 -1.37637e+01
       O  4.16999e+00 -3.45856e+00 -2.84264e+01
       H  3.52319e+00 -2.71024e+00 -2.85082e+01
       H  3.78664e+00 -4.11531e+00 -2.79167e+01
       O  1.77134e+00 -3.09397e+01 -1.45704e+01
       H  1.99665e+00 -3.09603e+01 -1.36213e+01
       H  1.74059e+00 -3.19154e+01 -1.46850e+01
       O -1.58946e+00  8.88780e-01 -1.24433e+01
       H -2.27208e+00  1.47263e+00 -1.21629e+01
       H -1.11207e+00  1.33696e+00 -1.31603e+01
       O -2.35925e+01 -1.65019e+01 -1.27302e+01
       H -2.36131e+01 -1.55744e+01 -1.28796e+01
       H -2.43626e+01 -1.68237e+01 -1.32556e+01
       O -1.01423e+01 -1.47351e+01 -2.02557e+01
       H -9.43411e+00 -1.44124e+01 -2.09314e+01
       H -1.09098e+01 -1.44639e+01 -2.07523e+01
       O -1.44071e+01 -1.90985e+01 -2.16145e+01
       H -1.47399e+01 -1.86459e+01 -2.08386e+01
       H -1.50686e+01 -1.89694e+01 -2.23425e+01
       O -1.85908e+01 -1.03937e+01  1.85062e+00
       H -1.86336e+01 -1.03867e+01  2.83160e+00
       H -1.76726e+01 -1.02326e+01  1.79606e+00
       O -1.59779e+01 -3.20021e+01 -1.18627e+01
       H -1.64861e+01 -3.12080e+01 -1.15635e+01
       H -1.50538e+01 -3.18849e+01 -1.15067e+01
       O -5.21620e+00 -6.36039e+00  5.12989e+00
       H -5.14572e+00 -7.31950e+00  5.26013e+00
       H -6.12066e+00 -6.22834e+00  5.42494e+00
       O -1.54746e+00 -1.02220e+01 -2.85401e+01
       H -2.34226e+00 -1.05883e+01 -2.81349e+01
       H -1.10212e+00 -1.10287e+01 -2.88972e+01
       O -2.89595e+00 -2.85085e+01 -2.20257e+01
       H -3.78961e+00 -2.86065e+01 -2.16302e+01
       H -2.61220e+00 -2.94416e+01 -2.22461e+01
       O -2.45409e+01 -1.38727e+01 -1.01733e+01
       H -2.38677e+01 -1.35767e+01 -1.07858e+01
       H -2.40727e+01 -1.46527e+01 -9.85279e+00
       O -5.93219e+00 -9.59399e+00 -1.50730e+01
       H -5.08502e+00 -9.74383e+00 -1.46482e+01
       H -6.51620e+00 -9.30978e+00 -1.43017e+01
       O -2.13683e+01 -5.25583e+01 -2.14555e+01
       H -2.19472e+01 -5.25912e+01 -2.21813e+01
       H -2.08051e+01 -5.18732e+01 -2.17520e+01
       O -1.79687e+01 -1.59171e+01 -4.48058e+01
       H -1.87174e+01 -1.62039e+01 -4.43183e+01
       H -1.72839e+01 -1.58470e+01 -4.40974e+01
       O -1.07437e+01 -1.39876e+01 -3.54222e+01
       H -1.04089e+01 -1.47543e+01 -3.58598e+01
       H -1.02191e+01 -1.41810e+01 -3.45614e+01
       O -2.64343e+01 -1.73938e+01 -9.08034e+00
       H -2.58938e+01 -1.70521e+01 -8.37974e+00
       H -2.64952e+01 -1.67444e+01 -9.78910e+00
       O -1.42160e+01 -7.02340e+00 -1.16228e+01
       H -1.42244e+01 -7.77870e+00 -1.10553e+01
       H -1.46406e+01 -7.31847e+00 -1.25129e+01
       O -1.27182e+01 -2.05186e+01 -1.53416e+01
       H -1.36467e+01 -2.06634e+01 -1.51430e+01
       H -1.24967e+01 -2.11665e+01 -1.60070e+01
       O -8.75167e-02 -5.39040e+00  3.53114e-01
       H  1.18981e-01 -4.48091e+00  7.64404e-02
       H  2.15874e-02 -5.44992e+00  1.29383e+00
       O -5.41862e+00  3.62157e+00  2.72147e-01
       H -5.60030e+00  3.57692e+00  1.29389e+00
       H -6.22508e+00  3.08647e+00  2.30957e-02
       O -2.65900e+00 -9.06562e+00 -7.65616e+00
       H -3.10887e+00 -8.47305e+00 -8.24489e+00
       H -3.11579e+00 -8.90631e+00 -6.81148e+00
       O -1.23884e+01 -6.04770e+00 -5.99616e+00
       H -1.18833e+01 -5.25753e+00 -5.57253e+00
       H -1.33052e+01 -5.73838e+00 -5.83859e+00
       O -1.39031e+01 -2.22333e-02 -5.81598e+00
       H -1.40407e+01 -8.13984e-01 -6.37339e+00
       H -1.41222e+01  5.82704e-01 -6.58245e+00
       O -1.44257e+01 -2.16137e+01 -8.15696e+00
       H -1.35106e+01 -2.16499e+01 -8.14383e+00
       H -1.47619e+01 -2.21360e+01 -8.86354e+00
       O -1.07286e+01 -2.62470e+01 -3.04555e+01
       H -1.07194e+01 -2.59739e+01 -2.95639e+01
       H -9.94639e+00 -2.67184e+01 -3.03871e+01
       O -2.02541e+01 -2.64306e+01 -1.19919e+01
       H -2.07191e+01 -2.68728e+01 -1.27773e+01
       H -1.93492e+01 -2.67932e+01 -1.20849e+01
       O -1.24317e+01 -3.08184e+01 -1.15190e+00
       H -1.31405e+01 -3.02338e+01 -6.88158e-01
       H -1.22678e+01 -3.04103e+01 -1.98659e+00
       O  2.09078e+00  6.65962e+00 -5.06277e+00
       H  2.62526e+00  7.51236e+00 -4.90695e+00
       H  1.96783e+00  6.30673e+00 -4.17332e+00
       O -1.13588e+01 -2.85546e+01 -1.82204e+01
       H -1.17044e+01 -2.91902e+01 -1.75389e+01
       H -1.10172e+01 -2.91862e+01 -1.88734e+01
       O -6.81728e+00 -4.11547e+00 -2.88158e+01
       H -7.17306e+00 -3.22904e+00 -2.90612e+01
       H -6.91306e+00 -4.58828e+00 -2.96568e+01
       O -2.38908e+01 -2.03109e+01 -8.53171e+00
       H -2.35238e+01 -2.02023e+01 -7.61578e+00
       H -2.41816e+01 -1.94672e+01 -8.87286e+00
       O -1.03235e+01 -3.54936e+01 -2.81676e+01
       H -1.10026e+01 -3.54399e+01 -2.74067e+01
       H -9.49383e+00 -3.58672e+01 -2.77106e+01
       O -5.37294e+00 -1.98055e+01 -9.62149e+00
       H -4.77648e+00 -1.90562e+01 -9.97229e+00
       H -6.23513e+00 -1.93421e+01 -9.31643e+00
       O -4.80879e+00 -1.51567e+01 -1.53080e+01
       H -3.82505e+00 -1.51487e+01 -1.52759e+01
       H -5.02335e+00 -1.46207e+01 -1.44579e+01
       O -9.84246e+00 -3.31400e+01 -3.74410e+00
       H -1.02012e+01 -3.40267e+01 -3.61440e+00
       H -1.06692e+01 -3.26485e+01 -4.04055e+00
       O -3.40850e+01 -8.95917e+00 -1.37369e+01
       H -3.44446e+01 -9.48677e+00 -1.30341e+01
       H -3.45460e+01 -8.17155e+00 -1.34396e+01
       O -2.23236e+01 -2.42346e+01 -2.20585e+01
       H -2.20839e+01 -2.51364e+01 -2.24220e+01
       H -2.15273e+01 -2.37017e+01 -2.22535e+01
       O -1.84230e+01 -6.63617e+00 -3.11012e+01
       H -1.84790e+01 -7.54635e+00 -3.14995e+01
       H -1.91159e+01 -6.62101e+00 -3.04042e+01
       O -2.20604e+01 -1.31703e+01 -1.90468e+01
       H -2.11315e+01 -1.32378e+01 -1.88093e+01
       H -2.25736e+01 -1.32529e+01 -1.82488e+01
       O -2.25346e+01 -1.73453e+01 -3.04646e+00
       H -2.16874e+01 -1.78165e+01 -3.28264e+00
       H -2.21533e+01 -1.65899e+01 -2.49071e+00
       O -1.21311e+00 -2.04367e+01 -1.02498e+01
       H -9.42438e-01 -2.11998e+01 -1.08489e+01
       H -1.96027e+00 -2.08032e+01 -9.71558e+00
       O -2.42036e+01 -2.58800e+01 -2.72391e+01
       H -2.49425e+01 -2.53982e+01 -2.77210e+01
       H -2.35859e+01 -2.61914e+01 -2.79331e+01
       O -1.98992e+01 -1.54607e+01 -2.06745e+01
       H -1.94538e+01 -1.49344e+01 -2.14162e+01
       H -2.00893e+01 -1.48233e+01 -1.99316e+01
       O -2.21226e+01 -3.13434e+01 -5.96354e+00
       H -2.12684e+01 -3.14383e+01 -5.46887e+00
       H -2.26461e+01 -3.20154e+01 -5.48287e+00
       O -2.45512e+01 -2.93442e+01 -3.27764e+01
       H -2.51316e+01 -3.00949e+01 -3.30043e+01
       H -2.51618e+01 -2.87217e+01 -3.23478e+01
       O -7.36927e+00 -1.31706e+01  7.81711e+00
       H -7.42924e+00 -1.30472e+01  8.78581e+00
       H -6.48847e+00 -1.27522e+01  7.58530e+00
       O -3.84198e+01 -7.13730e+00 -4.90956e+00
       H -3.82416e+01 -6.23880e+00 -4.61644e+00
       H -3.84404e+01 -7.65315e+00 -4.05367e+00
       O -1.61309e+01 -2.04676e+01 -6.10890e+00
       H -1.60475e+01 -1.96498e+01 -6.56325e+00
       H -1.57552e+01 -2.10893e+01 -6.82060e+00
       O -2.03834e+01 -2.04856e+01 -3.00453e+01
       H -2.05749e+01 -1.95387e+01 -2.97493e+01
       H -2.12205e+01 -2.08589e+01 -2.98267e+01
       O -8.91651e+00 -2.48074e+01 -7.97745e+00
       H -8.83925e+00 -2.51382e+01 -7.06652e+00
       H -8.46191e+00 -2.39630e+01 -7.90120e+00
       O -9.37855e+00 -1.81054e+01 -1.69554e+01
       H -9.43713e+00 -1.90228e+01 -1.71841e+01
       H -1.00034e+01 -1.80740e+01 -1.62061e+01
       O -1.85896e+01  5.15438e+00 -9.24868e+00
       H -1.84907e+01  4.58253e+00 -8.44570e+00
       H -1.76273e+01  5.14908e+00 -9.43044e+00
       O -1.03007e+01 -3.09972e+01 -1.63975e+01
       H -1.12036e+01 -3.13106e+01 -1.64298e+01
       H -9.64567e+00 -3.17798e+01 -1.64526e+01
       O -1.68476e+01 -2.49071e+01 -3.36740e+01
       H -1.77460e+01 -2.50405e+01 -3.40181e+01
       H -1.66932e+01 -2.58849e+01 -3.34825e+01
       O -8.60390e+00 -2.59771e+01 -1.26088e+01
       H -8.07177e+00 -2.60424e+01 -1.34773e+01
       H -9.45280e+00 -2.62637e+01 -1.29125e+01
       O -1.40366e+01 -4.60285e+00 -9.82012e+00
       H -1.41985e+01 -4.78956e+00 -1.07147e+01
       H -1.41130e+01 -5.54593e+00 -9.52290e+00
       O -2.14003e+01 -2.42786e+01 -3.53412e+01
       H -2.22867e+01 -2.38547e+01 -3.52535e+01
       H -2.17272e+01 -2.51381e+01 -3.51727e+01
       O -3.60540e+01 -2.49070e+01 -1.58694e+01
       H -3.53802e+01 -2.56075e+01 -1.57227e+01
       H -3.66706e+01 -2.55219e+01 -1.62775e+01
       O -2.49866e+01 -1.90064e+01  9.05574e+00
       H -2.58714e+01 -1.86093e+01  9.24612e+00
       H -2.44599e+01 -1.82153e+01  9.13776e+00
       O -1.11099e+01 -1.21568e+01 -4.40521e+00
       H -1.14247e+01 -1.18265e+01 -3.56666e+00
       H -1.08156e+01 -1.29749e+01 -4.05238e+00
       O -1.03523e+01 -1.76959e+01 -9.58632e+00
       H -1.10378e+01 -1.74349e+01 -1.02002e+01
       H -9.61182e+00 -1.73107e+01 -1.01628e+01
       O  6.05275e+00 -1.02191e+01  2.06570e+01
       H  6.04558e+00 -1.03823e+01  2.15496e+01
       H  5.39081e+00 -9.47068e+00  2.06604e+01
       O -7.89135e+00  1.14388e+00 -1.08316e+01
       H -8.74067e+00  7.94561e-01 -1.04560e+01
       H -7.21376e+00  9.62114e-01 -1.01032e+01
       O -2.06598e+00  9.21455e+00 -2.09447e+00
       H -2.34691e+00  9.79850e+00 -2.82068e+00
       H -1.35730e+00  8.74873e+00 -2.52691e+00
       O -1.28237e+01 -1.10751e+01 -2.89491e+01
       H -1.35236e+01 -1.17183e+01 -2.88857e+01
       H -1.21623e+01 -1.16797e+01 -2.85774e+01
       O -5.12328e+00 -1.33655e+01 -2.56274e+01
       H -5.88550e+00 -1.28407e+01 -2.59269e+01
       H -5.46525e+00 -1.41692e+01 -2.51873e+01
       O -1.47791e+01 -1.28039e+01 -2.82800e+01
       H -1.44851e+01 -1.36838e+01 -2.86109e+01
       H -1.48593e+01 -1.29327e+01 -2.72867e+01
       O -2.16387e+01 -2.59846e+01 -2.52650e+01
       H -2.16320e+01 -2.64120e+01 -2.43513e+01
       H -2.20721e+01 -2.67746e+01 -2.57226e+01
       O -5.67170e+00 -3.59525e-02 -5.60188e+00
       H -6.12092e+00  5.95700e-01 -6.20800e+00
       H -5.08858e+00  5.47928e-01 -5.14010e+00
       O -1.60859e+01 -2.04164e+01 -1.48090e+00
       H -1.59331e+01 -1.96042e+01 -9.80042e-01
       H -1.62696e+01 -2.00503e+01 -2.32856e+00
       O -4.74929e+00 -4.02504e+00 -1.29020e+01
       H -4.48702e+00 -4.96284e+00 -1.27114e+01
       H -4.20656e+00 -3.50311e+00 -1.22870e+01
       O -7.83614e+00 -8.43722e+00 -1.04683e+01
       H -8.77604e+00 -8.66438e+00 -1.04898e+01
       H -7.93161e+00 -7.51597e+00 -1.01900e+01
       O  1.15610e+01  6.04612e+00 -3.15793e+01
       H  1.08129e+01  6.67024e+00 -3.13667e+01
       H  1.21632e+01  6.65978e+00 -3.21134e+01
       O -2.06215e+01 -1.87779e+01 -6.14212e+00
       H -2.05320e+01 -1.77830e+01 -6.20740e+00
       H -2.16158e+01 -1.88576e+01 -6.12329e+00
       O -2.05570e+01 -2.87156e+01 -9.61321e+00
       H -2.10204e+01 -2.88411e+01 -1.04581e+01
       H -2.06977e+01 -2.77790e+01 -9.50878e+00
       O -8.98001e+00 -1.82047e+01 -5.46018e+00
       H -9.65549e+00 -1.77875e+01 -5.99751e+00
       H -9.45644e+00 -1.83926e+01 -4.63435e+00
       O -8.91325e+00 -1.84475e+01 -2.41198e+01
       H -8.75934e+00 -1.89404e+01 -2.49044e+01
       H -8.74333e+00 -1.90608e+01 -2.34225e+01
       O -1.66718e+01 -2.21082e+00 -1.73344e+01
       H -1.59952e+01 -1.57749e+00 -1.70109e+01
       H -1.72124e+01 -2.25756e+00 -1.65210e+01
       O -1.64619e+01 -2.51694e+01 -2.55273e+01
       H -1.59764e+01 -2.56132e+01 -2.62197e+01
       H -1.74244e+01 -2.54171e+01 -2.57223e+01
       O -1.24284e+01 -1.39435e+01 -1.00891e+01
       H -1.33924e+01 -1.34938e+01 -1.00139e+01
       H -1.18471e+01 -1.31271e+01 -1.01059e+01
       O -1.56386e+01 -3.88455e+01 -3.99284e+01
       H -1.60393e+01 -3.78979e+01 -3.99521e+01
       H -1.64535e+01 -3.93292e+01 -3.95807e+01
       O -2.19699e+01 -9.97801e+00 -1.07263e+01
       H -2.26219e+01 -9.27807e+00 -1.08998e+01
       H -2.13041e+01 -9.59660e+00 -1.13516e+01
       O -1.06368e+01 -3.25181e+01 -2.57302e+01
       H -1.10947e+01 -3.33796e+01 -2.56370e+01
       H -1.12843e+01 -3.20278e+01 -2.62364e+01
       O -1.36967e+01 -2.16320e+01 -1.13583e+01
       H -1.42559e+01 -2.18856e+01 -1.21308e+01
       H -1.35698e+01 -2.25134e+01 -1.09342e+01
       O -2.48074e+01 -2.23597e+01 -2.23385e+01
       H -2.54038e+01 -2.31176e+01 -2.25952e+01
       H -2.40130e+01 -2.28535e+01 -2.21865e+01
       O -1.60607e+01 -1.79855e+01 -7.84274e+00
       H -1.65786e+01 -1.83964e+01 -8.57936e+00
       H -1.51414e+01 -1.78605e+01 -8.21430e+00
       O -7.67168e+00 -2.79249e+01 -3.71336e+01
       H -7.17999e+00 -2.80774e+01 -3.62985e+01
       H -7.66746e+00 -2.69152e+01 -3.71063e+01
       O -2.23685e+00 -2.01246e+01 -2.18523e+01
       H -2.74667e+00 -2.09369e+01 -2.21103e+01
       H -2.79628e+00 -1.94666e+01 -2.14463e+01
       O -1.19028e+01 -1.08320e+01 -1.80720e+01
       H -1.09258e+01 -1.09187e+01 -1.81585e+01
       H -1.20801e+01 -9.87673e+00 -1.79484e+01
       O -1.93758e+01 -8.30582e+00 -1.88377e+01
       H -1.97025e+01 -7.35262e+00 -1.87662e+01
       H -1.93777e+01 -8.46534e+00 -1.97930e+01
       O -8.48005e+00 -1.69340e+00 -1.83469e+01
       H -8.40318e+00 -2.41830e+00 -1.90096e+01
       H -8.51685e+00 -2.18385e+00 -1.74778e+01
       O -6.37171e+00 -2.60487e+00 -1.68086e+00
       H -7.12918e+00 -2.00399e+00 -1.85250e+00
       H -5.95346e+00 -2.68213e+00 -2.59519e+00
       O -2.22863e+01 -1.39848e+01  1.03003e+00
       H -2.13075e+01 -1.41861e+01  1.12600e+00
       H -2.24652e+01 -1.35866e+01  1.87972e+00
       O -1.47728e+01 -1.18235e+01 -1.34526e+01
       H -1.38303e+01 -1.18858e+01 -1.31156e+01
       H -1.46438e+01 -1.16408e+01 -1.43592e+01
       O -2.66762e+01 -1.53148e+01 -1.10293e+01
       H -2.68194e+01 -1.49146e+01 -1.19335e+01
       H -2.58503e+01 -1.48588e+01 -1.08265e+01
       O -9.10530e+00 -1.00602e+01 -5.24360e+00
       H -9.55888e+00 -9.28855e+00 -5.54521e+00
       H -9.81447e+00 -1.07657e+01 -5.27263e+00
       O -2.02747e+01 -1.83502e+01 -4.27576e+01
       H -1.93701e+01 -1.87704e+01 -4.24863e+01
       H -2.08564e+01 -1.87228e+01 -4.20651e+01
       O -1.19205e+01 -2.44161e+01 -8.09430e+00
       H -1.16491e+01 -2.40113e+01 -7.27315e+00
       H -1.18420e+01 -2.53617e+01 -7.86560e+00
       O -2.88251e+00 -1.07665e+01 -1.71149e+01
       H -3.35274e+00 -1.01843e+01 -1.77624e+01
       H -3.50696e+00 -1.15319e+01 -1.70579e+01
       O -4.39825e+01 -1.45576e+01  8.26744e+00
       H -4.31241e+01 -1.41637e+01  7.99484e+00
       H -4.41759e+01 -1.41543e+01  9.11744e+00
       O -3.74429e+00 -1.78938e+01 -1.02237e+01
       H -3.10635e+00 -1.79776e+01 -1.09152e+01
       H -3.21940e+00 -1.75564e+01 -9.50147e+00
       O -2.11425e+01 -1.48626e+01  1.73985e+01
       H -2.10263e+01 -1.38868e+01  1.73824e+01
       H -2.19509e+01 -1.50105e+01  1.68279e+01
       O -8.71232e+00 -3.30645e+01 -3.15522e+01
       H -9.53857e+00 -3.31912e+01 -3.11077e+01
       H -8.96831e+00 -3.31642e+01 -3.24447e+01
       O -1.96090e+01 -2.36616e+01 -5.23803e+00
       H -1.97745e+01 -2.40337e+01 -6.09476e+00
       H -1.87020e+01 -2.39054e+01 -4.95307e+00
       O -1.06447e+01 -1.63521e+01  4.76421e+00
       H -1.07837e+01 -1.65981e+01  5.69590e+00
       H -1.14343e+01 -1.57496e+01  4.62717e+00
       O -1.35980e+01 -6.96058e+00 -8.26068e+00
       H -1.30657e+01 -6.71618e+00 -7.43944e+00
       H -1.41408e+01 -7.70876e+00 -7.98148e+00
       O -3.25355e+01 -1.41052e+01 -3.25461e+00
       H -3.24078e+01 -1.50443e+01 -3.12194e+00
       H -3.21778e+01 -1.36576e+01 -2.43527e+00
       O -1.41095e+01 -2.62307e+01 -2.63351e+01
       H -1.36555e+01 -2.53807e+01 -2.61939e+01
       H -1.37447e+01 -2.64488e+01 -2.72339e+01
       O -1.14922e+01 -1.15592e+01  3.73246e+00
       H -1.08551e+01 -1.22754e+01  3.85896e+00
       H -1.14817e+01 -1.14662e+01  2.77455e+00
       O -1.06467e+01 -2.84897e+01 -2.78334e+00
       H -1.13601e+01 -2.87024e+01 -3.42417e+00
       H -9.84673e+00 -2.87049e+01 -3.24765e+00
       O -1.20108e+01 -3.11420e+01 -4.72647e+00
       H -1.23863e+01 -3.02833e+01 -4.82480e+00
       H -1.23673e+01 -3.15553e+01 -5.54020e+00
       O -6.98088e+00 -1.08907e+01 -9.28859e-01
       H -6.67419e+00 -1.14369e+01 -1.59508e+00
       H -7.02645e+00 -1.15439e+01 -2.11205e-01
       O -2.09382e+01 -2.69389e+01 -5.48824e+00
       H -2.04782e+01 -2.75581e+01 -6.12137e+00
       H -2.04077e+01 -2.70614e+01 -4.71921e+00
       O  2.80111e-01 -1.73278e+00  2.46775e+00
       H -3.90874e-01 -1.04499e+00  2.51842e+00
       H  9.52577e-01 -1.38289e+00  2.99907e+00
       O -1.70541e+01 -2.44589e+01 -4.54799e+00
       H -1.65071e+01 -2.37895e+01 -4.10273e+00
       H -1.63593e+01 -2.50283e+01 -4.88661e+00
       O -2.15098e+01 -2.15613e+01 -1.01332e+01
       H -2.24121e+01 -2.12334e+01 -1.02540e+01
       H -2.08999e+01 -2.09086e+01 -1.05777e+01
       O -1.78418e+01 -1.74371e+01 -5.66951e+00
       H -1.71896e+01 -1.73154e+01 -6.29284e+00
       H -1.82496e+01 -1.66020e+01 -5.53807e+00
       O -6.40128e+00 -8.59671e+00 -2.19441e+00
       H -6.56636e+00 -9.49893e+00 -1.73005e+00
       H -7.21525e+00 -8.45568e+00 -2.71577e+00
       O -4.93427e+00 -1.44173e+01 -1.23995e+01
       H -4.00191e+00 -1.47533e+01 -1.23913e+01
       H -5.45076e+00 -1.51977e+01 -1.21178e+01
       O -2.25139e+01 -2.31478e+01 -1.25109e+01
       H -2.17024e+01 -2.31238e+01 -1.20705e+01
       H -2.22356e+01 -2.33970e+01 -1.34191e+01
       O -1.62394e+00 -1.18181e+01 -8.11849e+00
       H -2.37058e+00 -1.12680e+01 -8.27514e+00
       H -1.09189e+00 -1.11720e+01 -7.65926e+00
       O -1.11550e+01 -2.48167e+01 -1.43751e+01
       H -1.10468e+01 -2.52113e+01 -1.52499e+01
       H -1.20586e+01 -2.44318e+01 -1.44811e+01
       O -7.39497e+00 -6.92371e+00 -2.69280e+01
       H -7.83855e+00 -6.18798e+00 -2.74137e+01
       H -7.86097e+00 -6.87769e+00 -2.60840e+01
       O -1.98280e+01 -2.81407e+00 -2.15810e+00
       H -1.93797e+01 -3.01032e+00 -1.31797e+00
       H -2.06910e+01 -2.41890e+00 -1.80920e+00
       O -4.59564e+00 -1.37610e+00 -7.78328e+00
       H -5.46166e+00 -9.73847e-01 -7.95490e+00
       H -4.48102e+00 -1.03596e+00 -6.87727e+00
       O -1.74341e+01  1.95239e+00 -9.55070e+00
       H -1.80123e+01  2.15177e+00 -1.02722e+01
       H -1.69821e+01  2.75381e+00 -9.28444e+00
       O -8.24353e+00 -3.81815e+00 -1.62030e+01
       H -7.73449e+00 -3.32304e+00 -1.55176e+01
       H -7.57245e+00 -4.46003e+00 -1.64546e+01
       O -2.17251e+01 -8.30046e+00 -1.26491e+00
       H -2.21909e+01 -8.05946e+00 -4.62763e-01
       H -2.08421e+01 -8.44869e+00 -8.18266e-01
       O -1.73717e+01 -2.17217e+01  4.65331e-01
       H -1.71564e+01 -2.13713e+01 -4.58540e-01
       H -1.76968e+01 -2.08334e+01  8.63068e-01
       O -4.80838e-01 -4.83483e-01 -1.21455e+00
       H -1.17630e+00 -5.69944e-01 -1.93792e+00
       H -1.00096e+00 -7.54211e-01 -3.84076e-01
       O -2.42124e+01 -1.69714e+01 -6.74130e+00
       H -2.46785e+01 -1.66509e+01 -5.90123e+00
       H -2.37366e+01 -1.78736e+01 -6.48507e+00
       O -2.65462e+00 -2.36346e+01 -3.32648e+01
       H -2.32815e+00 -2.33430e+01 -3.41766e+01
       H -3.39062e+00 -2.42928e+01 -3.33736e+01
       O -2.26549e+00 -1.47354e+01 -1.49324e+01
       H -2.39894e+00 -1.45145e+01 -1.40408e+01
       H -1.76164e+00 -1.39945e+01 -1.52016e+01
       O -7.78528e+00 -1.65480e+01  4.08659e+00
       H -7.98819e+00 -1.73604e+01  3.59795e+00
       H -8.73561e+00 -1.64255e+01  4.35531e+00
       O -2.26956e+01 -1.58338e+01 -8.82894e+00
       H -2.30596e+01 -1.62102e+01 -7.97531e+00
       H -2.23707e+01 -1.66789e+01 -9.29032e+00
       O -1.22091e+01 -1.25795e+01 -2.01868e+01
       H -1.30151e+01 -1.21810e+01 -2.03066e+01
       H -1.18738e+01 -1.22476e+01 -1.93437e+01
       O -2.06275e+01 -1.94755e+01 -1.47727e+01
       H -2.01118e+01 -2.01815e+01 -1.51987e+01
       H -1.98631e+01 -1.89122e+01 -1.44083e+01
       O -8.47096e+00 -2.04970e+01 -1.41571e+01
       H -8.40822e+00 -2.12762e+01 -1.35690e+01
       H -8.92261e+00 -2.09616e+01 -1.48866e+01
       O -1.70972e+01  4.62711e+00 -1.27890e+01
       H -1.62893e+01  5.14450e+00 -1.31102e+01
       H -1.78576e+01  5.20837e+00 -1.29557e+01
       O  3.82080e-01 -1.95302e+01 -1.40716e+01
       H -3.89065e-01 -1.92797e+01 -1.46780e+01
       H  2.27357e-01 -2.04920e+01 -1.41197e+01
       O -6.74250e+00 -3.09437e+01 -8.37373e+00
       H -5.96860e+00 -3.03865e+01 -8.68550e+00
       H -7.32538e+00 -3.07901e+01 -9.11325e+00
       O -2.25565e+01 -1.25443e+01  3.45792e+00
       H -2.34370e+01 -1.29135e+01  3.72439e+00
       H -2.21659e+01 -1.23145e+01  4.34956e+00
       O -1.04338e+01 -2.24587e+01 -9.56420e+00
       H -1.08330e+01 -2.31086e+01 -9.00042e+00
       H -1.05173e+01 -2.28418e+01 -1.04866e+01
       O -8.56520e+00 -2.00634e+01 -2.63401e+01
       H -8.92555e+00 -1.97365e+01 -2.71999e+01
       H -7.63174e+00 -1.98990e+01 -2.66303e+01
       O -3.12345e+01 -3.02906e+01 -2.40967e+01
       H -3.12079e+01 -3.03078e+01 -2.30733e+01
       H -3.17156e+01 -2.94310e+01 -2.42918e+01
       O -3.45403e+01 -1.76103e+01 -5.72987e+00
       H -3.53886e+01 -1.77957e+01 -6.17658e+00
       H -3.40482e+01 -1.70491e+01 -6.39936e+00
       O  8.29103e-01 -1.06209e+01 -3.85256e-01
       H  3.58043e-02 -1.07508e+01  9.53996e-02
       H  5.37270e-01 -1.01508e+01 -1.16844e+00
       O -1.22389e+01 -2.03584e+01 -3.65830e+01
       H -1.16914e+01 -2.11780e+01 -3.64452e+01
       H -1.22119e+01 -1.99472e+01 -3.57319e+01
       O -1.64492e+01 -2.59304e+01 -2.85331e+01
       H -1.58110e+01 -2.58081e+01 -2.92345e+01
       H -1.63310e+01 -2.69270e+01 -2.83867e+01
       O -2.46063e+00 -6.14242e+00  4.02662e+00
       H -2.89863e+00 -6.78253e+00  3.42076e+00
       H -3.26731e+00 -5.65754e+00  4.23149e+00
       O -3.27315e+01 -1.04621e+01 -9.21755e+00
       H -3.21334e+01 -9.69701e+00 -8.95085e+00
       H -3.35241e+01 -9.99008e+00 -9.29739e+00
       O -2.57849e+01 -1.30209e+01 -3.11913e+00
       H -2.51326e+01 -1.23099e+01 -2.95649e+00
       H -2.60189e+01 -1.33493e+01 -2.21169e+00
       O -2.57230e+01  6.25972e+00 -1.42855e+01
       H -2.63292e+01  5.98390e+00 -1.35584e+01
       H -2.61958e+01  7.08150e+00 -1.45331e+01
       O -2.44880e+00 -2.04242e+00 -2.81059e+00
       H -2.22715e+00 -2.33726e+00 -3.71605e+00
       H -2.86612e+00 -2.79081e+00 -2.42231e+00
       O -3.82560e+00  1.46509e+00 -4.26964e-01
       H -4.48797e+00  2.21386e+00 -4.44774e-01
       H -3.90642e+00  1.09729e+00 -1.33294e+00
       O -1.42674e+01 -1.89935e+01 -1.14394e+01
       H -1.39100e+01 -1.98896e+01 -1.13451e+01
       H -1.36060e+01 -1.87005e+01 -1.20495e+01
       O -3.94027e+01 -1.83296e+01 -1.28032e+00
       H -3.97085e+01 -1.88691e+01 -2.05406e+00
       H -3.85458e+01 -1.80539e+01 -1.61081e+00
       O -1.96733e+01 -2.12425e+00 -2.58463e+01
       H -1.91975e+01 -1.33613e+00 -2.55538e+01
       H -2.05595e+01 -1.76567e+00 -2.60495e+01
       O -2.28812e+01 -7.95691e+00 -1.89956e+01
       H -2.32513e+01 -7.43428e+00 -1.96888e+01
       H -2.21657e+01 -8.25470e+00 -1.95129e+01
       O -1.00373e+01 -1.38297e+01  6.85128e+00
       H -9.97866e+00 -1.36099e+01  5.90738e+00
       H -9.07715e+00 -1.36557e+01  7.00370e+00
       O -8.57979e+00 -8.67275e+00 -1.67971e+01
       H -7.73854e+00 -8.87421e+00 -1.63141e+01
       H -8.23773e+00 -8.19111e+00 -1.75454e+01
       O -1.57250e+01 -9.06607e+00 -8.02195e+00
       H -1.62514e+01 -8.52347e+00 -8.66611e+00
       H -1.61811e+01 -8.93840e+00 -7.16765e+00
       O -1.74323e+01 -1.97538e+01 -3.75215e+00
       H -1.72460e+01 -1.87742e+01 -3.90779e+00
       H -1.72396e+01 -2.02163e+01 -4.60391e+00
       O -2.51104e+01  2.99330e+00 -1.51150e+01
       H -2.53592e+01  2.06518e+00 -1.52460e+01
       H -2.58689e+01  3.33174e+00 -1.46060e+01
       O -2.95386e+01 -2.98201e+01 -9.28891e+00
       H -2.92375e+01 -2.89079e+01 -9.16418e+00
       H -3.03923e+01 -2.97350e+01 -8.80408e+00
       O -1.38575e+01 -2.39326e+01 -1.00293e+01
       H -1.38061e+01 -2.47074e+01 -1.05624e+01
       H -1.33146e+01 -2.41777e+01 -9.19688e+00
       O -8.11001e+00 -2.47389e+01 -3.37937e+01
       H -7.60569e+00 -2.51442e+01 -3.30241e+01
       H -8.81901e+00 -2.42442e+01 -3.33234e+01
       O -1.25392e+01 -1.78312e+01 -1.63391e+01
       H -1.19665e+01 -1.79078e+01 -1.71107e+01
       H -1.27648e+01 -1.88235e+01 -1.62596e+01
       O -1.94365e+01 -2.19465e+01 -3.51312e+01
       H -1.96462e+01 -2.18146e+01 -3.41919e+01