14
# CELL(abcABC): 1000.00000  1000.00000  1000.00000    90.00000    90.00000    90.00000  Step:          87  Bead:       0 positions{angstrom}  cell{angstrom}
       C -6.33831e-01  6.42058e-01 -2.55378e-02
       C  4.64955e-01 -1.28613e-01  6.63002e-01
       C -1.86039e+00 -2.43706e-01 -2.83361e-01
       C -9.97470e-01  2.00803e+00  6.17321e-01
       H -1.47663e+00  1.77223e+00  1.55931e+00
       H -1.76464e+00  2.53200e+00  5.23827e-02
       H -1.79698e-01  2.70933e+00  8.04914e-01
       H -1.70759e+00 -1.08326e+00 -9.14448e-01
       H -2.63716e+00  3.67931e-01 -8.02237e-01
       H -2.35100e+00 -6.17968e-01  6.20322e-01
       H  1.42638e+00  3.01358e-01  6.19925e-01
       H  5.69457e-01 -1.09983e+00  1.66936e-01
       H  1.95937e-01 -3.06119e-01  1.67564e+00
       H -1.76064e-01  7.60562e-01 -1.06173e+00
