14
# CELL(abcABC): 1000.00000  1000.00000  1000.00000    90.00000    90.00000    90.00000  Step:          89  Bead:       0 positions{angstrom}  cell{angstrom}
       C -6.62636e-01  6.48638e-01  6.63645e-02
       C  2.72720e-01 -3.95497e-01  7.16452e-01
       C -1.86844e+00  1.01059e-01 -6.40125e-01
       C -7.93638e-01  1.93045e+00  8.52370e-01
       H -1.50899e+00  1.79355e+00  1.68749e+00
       H -1.25823e+00  2.70520e+00  2.31232e-01
       H  1.67983e-01  2.30204e+00  1.16822e+00
       H -1.63823e+00 -6.70451e-01 -1.36669e+00
       H -2.48147e+00  8.21449e-01 -1.16948e+00
       H -2.62130e+00 -4.02178e-01  3.16628e-02
       H  1.40173e+00 -9.84927e-02  8.44090e-01
       H  3.29845e-01 -1.33789e+00  1.34667e-01
       H -1.45737e-01 -6.27859e-01  1.68910e+00
       H -4.57236e-02  7.68783e-01 -8.10961e-01
