4
# CELL(abcABC): 1000.00000  1000.00000  1000.00000    90.00000    90.00000    90.00000  Step:           0  Bead:       0 positions{angstrom}  cell{angstrom}
       O -3.15242e+00  1.06600e+00  3.56712e-01
       H -3.56073e+00  2.80929e-01  7.09402e-01
       H -3.18912e+00  1.15072e+00 -6.10259e-01
       H -2.59659e+00  1.71822e+00  9.24308e-01
4
# CELL(abcABC): 1000.00000  1000.00000  1000.00000    90.00000    90.00000    90.00000  Step:           1  Bead:       0 positions{angstrom}  cell{angstrom}
       O -3.15067e+00  1.06640e+00  3.56185e-01
       H -3.57098e+00  2.72896e-01  7.14151e-01
       H -3.18882e+00  1.15012e+00 -6.09269e-01
       H -2.61448e+00  1.72046e+00  9.26938e-01
4
# CELL(abcABC): 1000.00000  1000.00000  1000.00000    90.00000    90.00000    90.00000  Step:           2  Bead:       0 positions{angstrom}  cell{angstrom}
       O -3.14892e+00  1.06689e+00  3.55725e-01
       H -3.58178e+00  2.64955e-01  7.19730e-01
       H -3.18667e+00  1.14976e+00 -6.08759e-01
       H -2.63359e+00  1.72106e+00  9.28147e-01
4
# CELL(abcABC): 1000.00000  1000.00000  1000.00000    90.00000    90.00000    90.00000  Step:           3  Bead:       0 positions{angstrom}  cell{angstrom}
       O -3.14711e+00  1.06739e+00  3.55292e-01
       H -3.59171e+00  2.57151e-01  7.26769e-01
       H -3.18459e+00  1.15085e+00 -6.08150e-01
       H -2.65437e+00  1.71985e+00  9.27374e-01
4
# CELL(abcABC): 1000.00000  1000.00000  1000.00000    90.00000    90.00000    90.00000  Step:           4  Bead:       0 positions{angstrom}  cell{angstrom}
       O -3.14538e+00  1.06779e+00  3.55056e-01
       H -3.60088e+00  2.50703e-01  7.31782e-01
       H -3.18176e+00  1.15311e+00 -6.08558e-01
       H -2.67548e+00  1.71762e+00  9.26507e-01
4
# CELL(abcABC): 1000.00000  1000.00000  1000.00000    90.00000    90.00000    90.00000  Step:           5  Bead:       0 positions{angstrom}  cell{angstrom}
       O -3.14367e+00  1.06783e+00  3.54967e-01
       H -3.60932e+00  2.47727e-01  7.35102e-01
       H -3.17952e+00  1.15713e+00 -6.08406e-01
       H -2.69645e+00  1.71600e+00  9.24446e-01
4
# CELL(abcABC): 1000.00000  1000.00000  1000.00000    90.00000    90.00000    90.00000  Step:           6  Bead:       0 positions{angstrom}  cell{angstrom}
       O -3.14201e+00  1.06760e+00  3.54993e-01
       H -3.61587e+00  2.48996e-01  7.35730e-01
       H -3.17795e+00  1.16021e+00 -6.09604e-01
       H -2.71780e+00  1.71535e+00  9.24604e-01
4
# CELL(abcABC): 1000.00000  1000.00000  1000.00000    90.00000    90.00000    90.00000  Step:           7  Bead:       0 positions{angstrom}  cell{angstrom}
       O -3.14059e+00  1.06686e+00  3.54856e-01
       H -3.61906e+00  2.54379e-01  7.35780e-01
       H -3.17665e+00  1.16355e+00 -6.10105e-01
       H -2.73845e+00  1.71835e+00  9.27242e-01
4
# CELL(abcABC): 1000.00000  1000.00000  1000.00000    90.00000    90.00000    90.00000  Step:           8  Bead:       0 positions{angstrom}  cell{angstrom}
       O -3.13946e+00  1.06571e+00  3.54762e-01
       H -3.61940e+00  2.63621e-01  7.33352e-01
       H -3.17448e+00  1.16648e+00 -6.11180e-01
       H -2.75835e+00  1.72444e+00  9.32237e-01
4
# CELL(abcABC): 1000.00000  1000.00000  1000.00000    90.00000    90.00000    90.00000  Step:           9  Bead:       0 positions{angstrom}  cell{angstrom}
       O -3.13852e+00  1.06426e+00  3.54494e-01
       H -3.61817e+00  2.75173e-01  7.30461e-01
       H -3.17144e+00  1.16993e+00 -6.11372e-01
       H -2.77742e+00  1.73243e+00  9.39562e-01
4
# CELL(abcABC): 1000.00000  1000.00000  1000.00000    90.00000    90.00000    90.00000  Step:          10  Bead:       0 positions{angstrom}  cell{angstrom}
       O -3.13771e+00  1.06243e+00  3.54291e-01
       H -3.61573e+00  2.88880e-01  7.25548e-01
       H -3.16841e+00  1.17430e+00 -6.11928e-01
       H -2.79586e+00  1.74331e+00  9.48254e-01
4
# CELL(abcABC): 1000.00000  1000.00000  1000.00000    90.00000    90.00000    90.00000  Step:          11  Bead:       0 positions{angstrom}  cell{angstrom}
       O -3.13692e+00  1.06044e+00  3.54167e-01
       H -3.61264e+00  3.04182e-01  7.18560e-01
       H -3.16690e+00  1.17847e+00 -6.12408e-01
       H -2.81293e+00  1.75555e+00  9.57704e-01
4
# CELL(abcABC): 1000.00000  1000.00000  1000.00000    90.00000    90.00000    90.00000  Step:          12  Bead:       0 positions{angstrom}  cell{angstrom}
       O -3.13622e+00  1.05847e+00  3.54046e-01
       H -3.60881e+00  3.18567e-01  7.11172e-01
       H -3.16580e+00  1.18140e+00 -6.13282e-01
       H -2.82899e+00  1.76943e+00  9.67880e-01
4
# CELL(abcABC): 1000.00000  1000.00000  1000.00000    90.00000    90.00000    90.00000  Step:          13  Bead:       0 positions{angstrom}  cell{angstrom}
       O -3.13545e+00  1.05667e+00  3.53826e-01
       H -3.60657e+00  3.31028e-01  7.04785e-01
       H -3.16378e+00  1.18406e+00 -6.13398e-01
       H -2.84551e+00  1.78283e+00  9.77879e-01
4
# CELL(abcABC): 1000.00000  1000.00000  1000.00000    90.00000    90.00000    90.00000  Step:          14  Bead:       0 positions{angstrom}  cell{angstrom}
       O -3.13452e+00  1.05517e+00  3.53480e-01
       H -3.60572e+00  3.39097e-01  7.00367e-01
       H -3.16168e+00  1.18715e+00 -6.12745e-01
       H -2.86324e+00  1.79560e+00  9.87133e-01
4
# CELL(abcABC): 1000.00000  1000.00000  1000.00000    90.00000    90.00000    90.00000  Step:          15  Bead:       0 positions{angstrom}  cell{angstrom}
       O -3.13323e+00  1.05397e+00  3.52835e-01
       H -3.61039e+00  3.41481e-01  7.00197e-01
       H -3.16070e+00  1.19057e+00 -6.11154e-01
       H -2.87993e+00  1.80882e+00  9.95957e-01
4
# CELL(abcABC): 1000.00000  1000.00000  1000.00000    90.00000    90.00000    90.00000  Step:          16  Bead:       0 positions{angstrom}  cell{angstrom}
       O -3.13168e+00  1.05314e+00  3.52153e-01
       H -3.61765e+00  3.38441e-01  7.01734e-01
       H -3.16050e+00  1.19493e+00 -6.08949e-01
       H -2.89746e+00  1.82058e+00  1.00304e+00
4
# CELL(abcABC): 1000.00000  1000.00000  1000.00000    90.00000    90.00000    90.00000  Step:          17  Bead:       0 positions{angstrom}  cell{angstrom}
       O -3.12975e+00  1.05273e+00  3.51502e-01
       H -3.62733e+00  3.31741e-01  7.05064e-01
       H -3.16206e+00  1.19989e+00 -6.07435e-01
       H -2.91690e+00  1.82894e+00  1.00853e+00
4
# CELL(abcABC): 1000.00000  1000.00000  1000.00000    90.00000    90.00000    90.00000  Step:          18  Bead:       0 positions{angstrom}  cell{angstrom}
       O -3.12753e+00  1.05255e+00  3.50960e-01
       H -3.64023e+00  3.23226e-01  7.09375e-01
       H -3.16336e+00  1.20483e+00 -6.05942e-01
       H -2.93791e+00  1.83530e+00  1.01132e+00
4
# CELL(abcABC): 1000.00000  1000.00000  1000.00000    90.00000    90.00000    90.00000  Step:          19  Bead:       0 positions{angstrom}  cell{angstrom}
       O -3.12522e+00  1.05265e+00  3.50591e-01
       H -3.65379e+00  3.13664e-01  7.14039e-01
       H -3.16634e+00  1.20920e+00 -6.05263e-01
       H -2.95802e+00  1.83893e+00  1.01183e+00
4
# CELL(abcABC): 1000.00000  1000.00000  1000.00000    90.00000    90.00000    90.00000  Step:          20  Bead:       0 positions{angstrom}  cell{angstrom}
       O -3.12280e+00  1.05292e+00  3.50533e-01
       H -3.66716e+00  3.05275e-01  7.16316e-01
       H -3.17122e+00  1.21365e+00 -6.04579e-01
       H -2.97816e+00  1.83863e+00  1.00979e+00
4
# CELL(abcABC): 1000.00000  1000.00000  1000.00000    90.00000    90.00000    90.00000  Step:          21  Bead:       0 positions{angstrom}  cell{angstrom}
       O -3.12044e+00  1.05321e+00  3.50840e-01
       H -3.67987e+00  2.98400e-01  7.15719e-01
       H -3.17541e+00  1.21866e+00 -6.03203e-01
       H -2.99885e+00  1.83583e+00  1.00415e+00
4
# CELL(abcABC): 1000.00000  1000.00000  1000.00000    90.00000    90.00000    90.00000  Step:          22  Bead:       0 positions{angstrom}  cell{angstrom}
       O -3.11818e+00  1.05336e+00  3.51550e-01
       H -3.69188e+00  2.93630e-01  7.13879e-01
       H -3.17825e+00  1.22396e+00 -6.03733e-01
       H -3.01983e+00  1.83291e+00  9.95252e-01
4
# CELL(abcABC): 1000.00000  1000.00000  1000.00000    90.00000    90.00000    90.00000  Step:          23  Bead:       0 positions{angstrom}  cell{angstrom}
       O -3.11606e+00  1.05335e+00  3.52730e-01
       H -3.70137e+00  2.93083e-01  7.08984e-01
       H -3.18082e+00  1.22974e+00 -6.03957e-01
       H -3.04142e+00  1.82782e+00  9.81629e-01
4
# CELL(abcABC): 1000.00000  1000.00000  1000.00000    90.00000    90.00000    90.00000  Step:          24  Bead:       0 positions{angstrom}  cell{angstrom}
       O -3.11411e+00  1.05302e+00  3.54137e-01
       H -3.70764e+00  2.95538e-01  7.01450e-01
       H -3.18344e+00  1.23649e+00 -6.03751e-01
       H -3.06350e+00  1.82388e+00  9.66624e-01
4
# CELL(abcABC): 1000.00000  1000.00000  1000.00000    90.00000    90.00000    90.00000  Step:          25  Bead:       0 positions{angstrom}  cell{angstrom}
       O -3.11227e+00  1.05249e+00  3.55586e-01
       H -3.71131e+00  3.00967e-01  6.92283e-01
       H -3.18674e+00  1.24237e+00 -6.02903e-01
       H -3.08572e+00  1.82096e+00  9.51952e-01
4
# CELL(abcABC): 1000.00000  1000.00000  1000.00000    90.00000    90.00000    90.00000  Step:          26  Bead:       0 positions{angstrom}  cell{angstrom}
       O -3.11056e+00  1.05173e+00  3.57049e-01
       H -3.71253e+00  3.09370e-01  6.80246e-01
       H -3.18997e+00  1.24759e+00 -6.01590e-01
       H -3.10838e+00  1.81939e+00  9.39440e-01
4
# CELL(abcABC): 1000.00000  1000.00000  1000.00000    90.00000    90.00000    90.00000  Step:          27  Bead:       0 positions{angstrom}  cell{angstrom}
       O -3.10907e+00  1.05064e+00  3.58496e-01
       H -3.71193e+00  3.21681e-01  6.65783e-01
       H -3.19331e+00  1.25147e+00 -5.99808e-01
       H -3.12927e+00  1.82048e+00  9.29157e-01
4
# CELL(abcABC): 1000.00000  1000.00000  1000.00000    90.00000    90.00000    90.00000  Step:          28  Bead:       0 positions{angstrom}  cell{angstrom}
       O -3.10761e+00  1.04929e+00  3.59767e-01
       H -3.71117e+00  3.34331e-01  6.49983e-01
       H -3.19609e+00  1.25489e+00 -5.96906e-01
       H -3.15054e+00  1.82590e+00  9.21876e-01
4
# CELL(abcABC): 1000.00000  1000.00000  1000.00000    90.00000    90.00000    90.00000  Step:          29  Bead:       0 positions{angstrom}  cell{angstrom}
       O -3.10619e+00  1.04771e+00  3.60906e-01
       H -3.70945e+00  3.47900e-01  6.32188e-01
       H -3.19976e+00  1.25765e+00 -5.93237e-01
       H -3.17106e+00  1.83460e+00  9.17931e-01
4
# CELL(abcABC): 1000.00000  1000.00000  1000.00000    90.00000    90.00000    90.00000  Step:          30  Bead:       0 positions{angstrom}  cell{angstrom}
       O -3.10474e+00  1.04597e+00  3.61848e-01
       H -3.70829e+00  3.61528e-01  6.15285e-01
       H -3.20354e+00  1.25979e+00 -5.88578e-01
       H -3.19153e+00  1.84648e+00  9.15214e-01
4
# CELL(abcABC): 1000.00000  1000.00000  1000.00000    90.00000    90.00000    90.00000  Step:          31  Bead:       0 positions{angstrom}  cell{angstrom}
       O -3.10331e+00  1.04421e+00  3.62702e-01
       H -3.70784e+00  3.72753e-01  5.99420e-01
       H -3.20652e+00  1.26257e+00 -5.84323e-01
       H -3.21170e+00  1.86046e+00  9.13273e-01
4
# CELL(abcABC): 1000.00000  1000.00000  1000.00000    90.00000    90.00000    90.00000  Step:          32  Bead:       0 positions{angstrom}  cell{angstrom}
       O -3.10168e+00  1.04279e+00  3.63251e-01
       H -3.71186e+00  3.78057e-01  5.85622e-01
       H -3.20869e+00  1.26622e+00 -5.78935e-01
       H -3.23133e+00  1.87405e+00  9.12965e-01
4
# CELL(abcABC): 1000.00000  1000.00000  1000.00000    90.00000    90.00000    90.00000  Step:          33  Bead:       0 positions{angstrom}  cell{angstrom}
       O -3.09985e+00  1.04186e+00  3.63619e-01
       H -3.72050e+00  3.77980e-01  5.74741e-01
       H -3.21017e+00  1.26859e+00 -5.73577e-01
       H -3.25024e+00  1.88656e+00  9.12651e-01
4
# CELL(abcABC): 1000.00000  1000.00000  1000.00000    90.00000    90.00000    90.00000  Step:          34  Bead:       0 positions{angstrom}  cell{angstrom}
       O -3.09774e+00  1.04136e+00  3.64086e-01
       H -3.73242e+00  3.73341e-01  5.65252e-01
       H -3.21311e+00  1.27029e+00 -5.68915e-01
       H -3.26890e+00  1.89741e+00  9.10057e-01
4
# CELL(abcABC): 1000.00000  1000.00000  1000.00000    90.00000    90.00000    90.00000  Step:          35  Bead:       0 positions{angstrom}  cell{angstrom}
       O -3.09559e+00  1.04120e+00  3.64634e-01
       H -3.74535e+00  3.65250e-01  5.56228e-01
       H -3.21688e+00  1.27286e+00 -5.65055e-01
       H -3.28633e+00  1.90541e+00  9.06527e-01
4
# CELL(abcABC): 1000.00000  1000.00000  1000.00000    90.00000    90.00000    90.00000  Step:          36  Bead:       0 positions{angstrom}  cell{angstrom}
       O -3.09350e+00  1.04128e+00  3.65339e-01
       H -3.75942e+00  3.55107e-01  5.47488e-01
       H -3.22005e+00  1.27676e+00 -5.63830e-01
       H -3.30228e+00  1.91041e+00  9.02855e-01
4
# CELL(abcABC): 1000.00000  1000.00000  1000.00000    90.00000    90.00000    90.00000  Step:          37  Bead:       0 positions{angstrom}  cell{angstrom}
       O -3.09160e+00  1.04166e+00  3.66096e-01
       H -3.77281e+00  3.45136e-01  5.40927e-01
       H -3.22213e+00  1.28008e+00 -5.64870e-01
       H -3.31688e+00  1.91097e+00  8.98432e-01
4
# CELL(abcABC): 1000.00000  1000.00000  1000.00000    90.00000    90.00000    90.00000  Step:          38  Bead:       0 positions{angstrom}  cell{angstrom}
       O -3.08979e+00  1.04222e+00  3.67176e-01
       H -3.78585e+00  3.35571e-01  5.33292e-01
       H -3.22334e+00  1.28222e+00 -5.67699e-01
       H -3.33141e+00  1.90952e+00  8.91752e-01
4
# CELL(abcABC): 1000.00000  1000.00000  1000.00000    90.00000    90.00000    90.00000  Step:          39  Bead:       0 positions{angstrom}  cell{angstrom}
       O -3.08847e+00  1.04301e+00  3.68281e-01
       H -3.79568e+00  3.27119e-01  5.26082e-01
       H -3.22309e+00  1.28296e+00 -5.70668e-01
       H -3.34280e+00  1.90465e+00  8.84406e-01
4
# CELL(abcABC): 1000.00000  1000.00000  1000.00000    90.00000    90.00000    90.00000  Step:          40  Bead:       0 positions{angstrom}  cell{angstrom}
       O -3.08758e+00  1.04381e+00  3.69281e-01
       H -3.80216e+00  3.21309e-01  5.19666e-01
       H -3.22130e+00  1.28348e+00 -5.72593e-01
       H -3.35218e+00  1.89736e+00  8.76858e-01
4
# CELL(abcABC): 1000.00000  1000.00000  1000.00000    90.00000    90.00000    90.00000  Step:          41  Bead:       0 positions{angstrom}  cell{angstrom}
       O -3.08712e+00  1.04455e+00  3.70262e-01
       H -3.80511e+00  3.19217e-01  5.12647e-01
       H -3.21745e+00  1.28394e+00 -5.74464e-01
       H -3.36039e+00  1.88712e+00  8.70176e-01
4
# CELL(abcABC): 1000.00000  1000.00000  1000.00000    90.00000    90.00000    90.00000  Step:          42  Bead:       0 positions{angstrom}  cell{angstrom}
       O -3.08721e+00  1.04537e+00  3.71276e-01
       H -3.80256e+00  3.18400e-01  5.05170e-01
       H -3.21178e+00  1.28397e+00 -5.75938e-01
       H -3.36722e+00  1.87501e+00  8.63035e-01
4
# CELL(abcABC): 1000.00000  1000.00000  1000.00000    90.00000    90.00000    90.00000  Step:          43  Bead:       0 positions{angstrom}  cell{angstrom}
       O -3.08770e+00  1.04601e+00  3.72232e-01
       H -3.79632e+00  3.21381e-01  4.97309e-01
       H -3.20432e+00  1.28483e+00 -5.76938e-01
       H -3.37312e+00  1.86101e+00  8.56733e-01
4
# CELL(abcABC): 1000.00000  1000.00000  1000.00000    90.00000    90.00000    90.00000  Step:          44  Bead:       0 positions{angstrom}  cell{angstrom}
       O -3.08854e+00  1.04654e+00  3.73059e-01
       H -3.78631e+00  3.26191e-01  4.88932e-01
       H -3.19510e+00  1.28478e+00 -5.78015e-01
       H -3.37908e+00  1.84779e+00  8.53059e-01
4
# CELL(abcABC): 1000.00000  1000.00000  1000.00000    90.00000    90.00000    90.00000  Step:          45  Bead:       0 positions{angstrom}  cell{angstrom}
       O -3.08958e+00  1.04694e+00  3.73766e-01
       H -3.77400e+00  3.32855e-01  4.80176e-01
       H -3.18349e+00  1.28364e+00 -5.79393e-01
       H -3.38647e+00  1.83589e+00  8.51963e-01
4
# CELL(abcABC): 1000.00000  1000.00000  1000.00000    90.00000    90.00000    90.00000  Step:          46  Bead:       0 positions{angstrom}  cell{angstrom}
       O -3.09088e+00  1.04723e+00  3.74285e-01
       H -3.75987e+00  3.40784e-01  4.71465e-01
       H -3.17031e+00  1.28123e+00 -5.80648e-01
       H -3.39311e+00  1.82586e+00  8.53695e-01
4
# CELL(abcABC): 1000.00000  1000.00000  1000.00000    90.00000    90.00000    90.00000  Step:          47  Bead:       0 positions{angstrom}  cell{angstrom}
       O -3.09228e+00  1.04730e+00  3.74676e-01
       H -3.74502e+00  3.47708e-01  4.63701e-01
       H -3.15534e+00  1.27871e+00 -5.82146e-01
       H -3.40068e+00  1.82029e+00  8.56742e-01
4
# CELL(abcABC): 1000.00000  1000.00000  1000.00000    90.00000    90.00000    90.00000  Step:          48  Bead:       0 positions{angstrom}  cell{angstrom}
       O -3.09369e+00  1.04744e+00  3.74793e-01
       H -3.73034e+00  3.51318e-01  4.57123e-01
       H -3.13882e+00  1.27653e+00 -5.83717e-01
       H -3.40949e+00  1.81664e+00  8.63041e-01
4
# CELL(abcABC): 1000.00000  1000.00000  1000.00000    90.00000    90.00000    90.00000  Step:          49  Bead:       0 positions{angstrom}  cell{angstrom}
       O -3.09509e+00  1.04765e+00  3.74534e-01
       H -3.71749e+00  3.50720e-01  4.52133e-01
       H -3.11965e+00  1.27388e+00 -5.84438e-01
       H -3.41933e+00  1.81647e+00  8.72866e-01
4
# CELL(abcABC): 1000.00000  1000.00000  1000.00000    90.00000    90.00000    90.00000  Step:          50  Bead:       0 positions{angstrom}  cell{angstrom}
       O -3.09621e+00  1.04811e+00  3.74146e-01
       H -3.70775e+00  3.45458e-01  4.47887e-01
       H -3.10094e+00  1.27042e+00 -5.84380e-01
       H -3.43005e+00  1.81793e+00  8.83213e-01
4
# CELL(abcABC): 1000.00000  1000.00000  1000.00000    90.00000    90.00000    90.00000  Step:          51  Bead:       0 positions{angstrom}  cell{angstrom}
       O -3.09720e+00  1.04880e+00  3.73596e-01
       H -3.70148e+00  3.34638e-01  4.44172e-01
       H -3.08152e+00  1.26730e+00 -5.83901e-01
       H -3.43990e+00  1.82098e+00  8.95179e-01
4
# CELL(abcABC): 1000.00000  1000.00000  1000.00000    90.00000    90.00000    90.00000  Step:          52  Bead:       0 positions{angstrom}  cell{angstrom}
       O -3.09808e+00  1.04983e+00  3.73045e-01
       H -3.69836e+00  3.18937e-01  4.41285e-01
       H -3.06155e+00  1.26377e+00 -5.84145e-01
       H -3.44903e+00  1.82378e+00  9.07050e-01
4
# CELL(abcABC): 1000.00000  1000.00000  1000.00000    90.00000    90.00000    90.00000  Step:          53  Bead:       0 positions{angstrom}  cell{angstrom}
       O -3.09894e+00  1.05106e+00  3.72406e-01
       H -3.69650e+00  3.00316e-01  4.38100e-01
       H -3.04132e+00  1.26193e+00 -5.83378e-01
       H -3.45746e+00  1.82475e+00  9.19608e-01
4
# CELL(abcABC): 1000.00000  1000.00000  1000.00000    90.00000    90.00000    90.00000  Step:          54  Bead:       0 positions{angstrom}  cell{angstrom}
       O -3.09982e+00  1.05253e+00  3.71497e-01
       H -3.69543e+00  2.78899e-01  4.36409e-01
       H -3.02113e+00  1.26121e+00 -5.81493e-01
       H -3.46484e+00  1.82352e+00  9.33850e-01
4
# CELL(abcABC): 1000.00000  1000.00000  1000.00000    90.00000    90.00000    90.00000  Step:          55  Bead:       0 positions{angstrom}  cell{angstrom}
       O -3.10086e+00  1.05410e+00  3.70590e-01
       H -3.69441e+00  2.57447e-01  4.35702e-01
       H -3.00065e+00  1.26110e+00 -5.78689e-01
       H -3.46989e+00  1.82021e+00  9.46153e-01
4
# CELL(abcABC): 1000.00000  1000.00000  1000.00000    90.00000    90.00000    90.00000  Step:          56  Bead:       0 positions{angstrom}  cell{angstrom}
       O -3.10215e+00  1.05562e+00  3.69758e-01
       H -3.68957e+00  2.37692e-01  4.35610e-01
       H -2.98031e+00  1.26133e+00 -5.76884e-01
       H -3.47449e+00  1.81568e+00  9.57640e-01
4
# CELL(abcABC): 1000.00000  1000.00000  1000.00000    90.00000    90.00000    90.00000  Step:          57  Bead:       0 positions{angstrom}  cell{angstrom}
       O -3.10368e+00  1.05701e+00  3.68980e-01
       H -3.68071e+00  2.21152e-01  4.35904e-01
       H -2.96115e+00  1.26170e+00 -5.73965e-01
       H -3.47827e+00  1.80979e+00  9.66772e-01
4
# CELL(abcABC): 1000.00000  1000.00000  1000.00000    90.00000    90.00000    90.00000  Step:          58  Bead:       0 positions{angstrom}  cell{angstrom}
       O -3.10555e+00  1.05830e+00  3.68332e-01
       H -3.66784e+00  2.07268e-01  4.35801e-01
       H -2.94180e+00  1.26266e+00 -5.70308e-01
       H -3.48082e+00  1.80212e+00  9.73506e-01
4
# CELL(abcABC): 1000.00000  1000.00000  1000.00000    90.00000    90.00000    90.00000  Step:          59  Bead:       0 positions{angstrom}  cell{angstrom}
       O -3.10775e+00  1.05938e+00  3.67709e-01
       H -3.65093e+00  1.97330e-01  4.35493e-01
       H -2.92231e+00  1.26471e+00 -5.64943e-01
       H -3.48220e+00  1.79290e+00  9.78348e-01
4
# CELL(abcABC): 1000.00000  1000.00000  1000.00000    90.00000    90.00000    90.00000  Step:          60  Bead:       0 positions{angstrom}  cell{angstrom}
       O -3.11027e+00  1.06032e+00  3.67279e-01
       H -3.63202e+00  1.90898e-01  4.34930e-01
       H -2.90216e+00  1.26674e+00 -5.61122e-01
       H -3.48125e+00  1.78247e+00  9.81906e-01
4
# CELL(abcABC): 1000.00000  1000.00000  1000.00000    90.00000    90.00000    90.00000  Step:          61  Bead:       0 positions{angstrom}  cell{angstrom}
       O -3.11314e+00  1.06110e+00  3.67005e-01
       H -3.60950e+00  1.87559e-01  4.33767e-01
       H -2.88088e+00  1.26903e+00 -5.58405e-01
       H -3.47955e+00  1.77110e+00  9.84708e-01
4
# CELL(abcABC): 1000.00000  1000.00000  1000.00000    90.00000    90.00000    90.00000  Step:          62  Bead:       0 positions{angstrom}  cell{angstrom}
       O -3.11613e+00  1.06179e+00  3.66943e-01
       H -3.58557e+00  1.86383e-01  4.31850e-01
       H -2.86103e+00  1.27117e+00 -5.55639e-01
       H -3.47592e+00  1.75911e+00  9.84845e-01
4
# CELL(abcABC): 1000.00000  1000.00000  1000.00000    90.00000    90.00000    90.00000  Step:          63  Bead:       0 positions{angstrom}  cell{angstrom}
       O -3.11918e+00  1.06223e+00  3.66741e-01
       H -3.55978e+00  1.88308e-01  4.30190e-01
       H -2.84193e+00  1.27272e+00 -5.52090e-01
       H -3.47242e+00  1.74866e+00  9.86159e-01
4
# CELL(abcABC): 1000.00000  1000.00000  1000.00000    90.00000    90.00000    90.00000  Step:          64  Bead:       0 positions{angstrom}  cell{angstrom}
       O -3.12229e+00  1.06257e+00  3.66450e-01
       H -3.53208e+00  1.91391e-01  4.29439e-01
       H -2.82309e+00  1.27409e+00 -5.47228e-01
       H -3.46957e+00  1.73891e+00  9.86665e-01
4
# CELL(abcABC): 1000.00000  1000.00000  1000.00000    90.00000    90.00000    90.00000  Step:          65  Bead:       0 positions{angstrom}  cell{angstrom}
       O -3.12534e+00  1.06281e+00  3.66073e-01
       H -3.50538e+00  1.94395e-01  4.27685e-01
       H -2.80432e+00  1.27668e+00 -5.41002e-01
       H -3.46651e+00  1.72947e+00  9.88180e-01
4
# CELL(abcABC): 1000.00000  1000.00000  1000.00000    90.00000    90.00000    90.00000  Step:          66  Bead:       0 positions{angstrom}  cell{angstrom}
       O -3.12828e+00  1.06299e+00  3.65439e-01
       H -3.47988e+00  1.97629e-01  4.26860e-01
       H -2.78623e+00  1.27780e+00 -5.32766e-01
       H -3.46350e+00  1.72224e+00  9.90833e-01
4
# CELL(abcABC): 1000.00000  1000.00000  1000.00000    90.00000    90.00000    90.00000  Step:          67  Bead:       0 positions{angstrom}  cell{angstrom}
       O -3.13095e+00  1.06337e+00  3.64602e-01
       H -3.45603e+00  1.95967e-01  4.25642e-01
       H -2.76842e+00  1.27909e+00 -5.22357e-01
       H -3.46287e+00  1.71654e+00  9.94919e-01
4
# CELL(abcABC): 1000.00000  1000.00000  1000.00000    90.00000    90.00000    90.00000  Step:          68  Bead:       0 positions{angstrom}  cell{angstrom}
       O -3.13341e+00  1.06389e+00  3.63709e-01
       H -3.43384e+00  1.88908e-01  4.24659e-01
       H -2.75096e+00  1.28068e+00 -5.12130e-01
       H -3.46346e+00  1.71376e+00  9.99854e-01
4
# CELL(abcABC): 1000.00000  1000.00000  1000.00000    90.00000    90.00000    90.00000  Step:          69  Bead:       0 positions{angstrom}  cell{angstrom}
       O -3.13557e+00  1.06472e+00  3.62447e-01
       H -3.41427e+00  1.74962e-01  4.25891e-01
       H -2.73479e+00  1.28274e+00 -4.99826e-01
       H -3.46479e+00  1.71250e+00  1.00635e+00
4
# CELL(abcABC): 1000.00000  1000.00000  1000.00000    90.00000    90.00000    90.00000  Step:          70  Bead:       0 positions{angstrom}  cell{angstrom}
       O -3.13771e+00  1.06554e+00  3.61045e-01
       H -3.39610e+00  1.57278e-01  4.26740e-01
       H -2.71880e+00  1.28616e+00 -4.87101e-01
       H -3.46497e+00  1.71366e+00  1.01503e+00
4
# CELL(abcABC): 1000.00000  1000.00000  1000.00000    90.00000    90.00000    90.00000  Step:          71  Bead:       0 positions{angstrom}  cell{angstrom}
       O -3.13969e+00  1.06649e+00  3.59627e-01
       H -3.37980e+00  1.35810e-01  4.26646e-01
       H -2.70339e+00  1.28982e+00 -4.74571e-01
       H -3.46525e+00  1.71643e+00  1.02511e+00
4
# CELL(abcABC): 1000.00000  1000.00000  1000.00000    90.00000    90.00000    90.00000  Step:          72  Bead:       0 positions{angstrom}  cell{angstrom}
       O -3.14167e+00  1.06727e+00  3.58139e-01
       H -3.36370e+00  1.14054e-01  4.27152e-01
       H -2.68770e+00  1.29458e+00 -4.61452e-01
       H -3.46562e+00  1.72105e+00  1.03510e+00
4
# CELL(abcABC): 1000.00000  1000.00000  1000.00000    90.00000    90.00000    90.00000  Step:          73  Bead:       0 positions{angstrom}  cell{angstrom}
       O -3.14364e+00  1.06792e+00  3.56766e-01
       H -3.34781e+00  9.35966e-02  4.27716e-01
       H -2.67172e+00  1.30076e+00 -4.48816e-01
       H -3.46628e+00  1.72504e+00  1.04369e+00
4
# CELL(abcABC): 1000.00000  1000.00000  1000.00000    90.00000    90.00000    90.00000  Step:          74  Bead:       0 positions{angstrom}  cell{angstrom}
       O -3.14571e+00  1.06827e+00  3.55646e-01
       H -3.33133e+00  7.63731e-02  4.27087e-01
       H -2.65535e+00  1.30805e+00 -4.38040e-01
       H -3.46629e+00  1.72944e+00  1.05133e+00
4
# CELL(abcABC): 1000.00000  1000.00000  1000.00000    90.00000    90.00000    90.00000  Step:          75  Bead:       0 positions{angstrom}  cell{angstrom}
       O -3.14771e+00  1.06837e+00  3.54642e-01
       H -3.31488e+00  6.25510e-02  4.25969e-01
       H -2.63925e+00  1.31576e+00 -4.27075e-01
       H -3.46709e+00  1.73396e+00  1.05742e+00
4
# CELL(abcABC): 1000.00000  1000.00000  1000.00000    90.00000    90.00000    90.00000  Step:          76  Bead:       0 positions{angstrom}  cell{angstrom}
       O -3.14988e+00  1.06804e+00  3.53639e-01
       H -3.29711e+00  5.42264e-02  4.26009e-01
       H -2.62310e+00  1.32441e+00 -4.16413e-01
       H -3.46653e+00  1.73888e+00  1.06263e+00
4
# CELL(abcABC): 1000.00000  1000.00000  1000.00000    90.00000    90.00000    90.00000  Step:          77  Bead:       0 positions{angstrom}  cell{angstrom}
       O -3.15205e+00  1.06739e+00  3.52718e-01
       H -3.27896e+00  5.24289e-02  4.26185e-01
       H -2.60742e+00  1.33404e+00 -4.05237e-01
       H -3.46594e+00  1.74139e+00  1.06590e+00
4
# CELL(abcABC): 1000.00000  1000.00000  1000.00000    90.00000    90.00000    90.00000  Step:          78  Bead:       0 positions{angstrom}  cell{angstrom}
       O -3.15422e+00  1.06650e+00  3.52064e-01
       H -3.26167e+00  5.54246e-02  4.25623e-01
       H -2.59111e+00  1.34478e+00 -3.94113e-01
       H -3.46509e+00  1.74177e+00  1.06572e+00
4
# CELL(abcABC): 1000.00000  1000.00000  1000.00000    90.00000    90.00000    90.00000  Step:          79  Bead:       0 positions{angstrom}  cell{angstrom}
       O -3.15647e+00  1.06552e+00  3.51445e-01
       H -3.24492e+00  6.38710e-02  4.26623e-01
       H -2.57395e+00  1.35483e+00 -3.82585e-01
       H -3.46322e+00  1.73873e+00  1.06302e+00
4
# CELL(abcABC): 1000.00000  1000.00000  1000.00000    90.00000    90.00000    90.00000  Step:          80  Bead:       0 positions{angstrom}  cell{angstrom}
       O -3.15880e+00  1.06447e+00  3.50734e-01
       H -3.22788e+00  7.65212e-02  4.28051e-01
       H -2.55707e+00  1.36444e+00 -3.68968e-01
       H -3.46016e+00  1.73323e+00  1.05927e+00
4
# CELL(abcABC): 1000.00000  1000.00000  1000.00000    90.00000    90.00000    90.00000  Step:          81  Bead:       0 positions{angstrom}  cell{angstrom}
       O -3.16114e+00  1.06327e+00  3.50044e-01
       H -3.20904e+00  9.24913e-02  4.29444e-01
       H -2.54166e+00  1.37551e+00 -3.53817e-01
       H -3.45730e+00  1.72515e+00  1.05367e+00
4
# CELL(abcABC): 1000.00000  1000.00000  1000.00000    90.00000    90.00000    90.00000  Step:          82  Bead:       0 positions{angstrom}  cell{angstrom}
       O -3.16338e+00  1.06233e+00  3.49153e-01
       H -3.18997e+00  1.08332e-01  4.32403e-01
       H -2.52703e+00  1.38477e+00 -3.37189e-01
       H -3.45552e+00  1.71507e+00  1.04822e+00
4
# CELL(abcABC): 1000.00000  1000.00000  1000.00000    90.00000    90.00000    90.00000  Step:          83  Bead:       0 positions{angstrom}  cell{angstrom}
       O -3.16552e+00  1.06154e+00  3.48098e-01
       H -3.17138e+00  1.22902e-01  4.36833e-01
       H -2.51366e+00  1.39372e+00 -3.18974e-01
       H -3.45352e+00  1.70408e+00  1.04232e+00
4
# CELL(abcABC): 1000.00000  1000.00000  1000.00000    90.00000    90.00000    90.00000  Step:          84  Bead:       0 positions{angstrom}  cell{angstrom}
       O -3.16747e+00  1.06107e+00  3.46853e-01
       H -3.15225e+00  1.32939e-01  4.41529e-01
       H -2.50264e+00  1.40210e+00 -2.99402e-01
       H -3.45259e+00  1.69311e+00  1.03782e+00
4
# CELL(abcABC): 1000.00000  1000.00000  1000.00000    90.00000    90.00000    90.00000  Step:          85  Bead:       0 positions{angstrom}  cell{angstrom}