11135
# CELL(abcABC):   47.46614    47.46614    47.46614    90.00000    90.00000    90.00000  Step:        3850  Bead:       0 positions{angstrom}  cell{angstrom}
       C -7.92582e+00 -2.98060e+00  3.57830e+00
       H -8.38440e+00 -2.77989e+00  4.56926e+00
       H -7.84648e+00 -4.10534e+00  3.66179e+00
       H -8.61991e+00 -2.69496e+00  2.72727e+00
       C -6.61513e+00 -2.37233e+00  3.58395e+00
       O -5.71619e+00 -2.74378e+00  4.34947e+00
       N -6.42058e+00 -1.40875e+00  2.62544e+00
       H -7.19765e+00 -1.12661e+00  2.06556e+00
       C -5.13720e+00 -8.04762e-01  2.18153e+00
       H -4.66358e+00 -1.54445e+00  1.61137e+00
       C -5.54048e+00  2.90874e-01  1.29542e+00
       H -4.61037e+00  7.81791e-01  8.72229e-01
       H -6.09802e+00  1.07942e+00  1.76816e+00
       C -6.34578e+00 -6.70375e-02 -1.35266e-02
       H -7.36378e+00 -3.85395e-01  1.58405e-01
       H -6.00836e+00 -9.23397e-01 -5.71741e-01
       C -6.28459e+00  1.16544e+00 -9.86509e-01
       H -5.26787e+00  1.21007e+00 -1.30420e+00
       H -6.71504e+00  2.05295e+00 -5.65800e-01
       C -7.12225e+00  9.48723e-01 -2.23767e+00
       H -6.93308e+00  1.67341e+00 -3.06798e+00
       H -8.14851e+00  1.01536e+00 -1.99162e+00
       N -7.03126e+00 -3.80543e-01 -2.94418e+00
       H -6.00911e+00 -7.22698e-01 -2.96875e+00
       H -7.32459e+00 -2.77300e-01 -4.02170e+00
       H -7.60028e+00 -1.10874e+00 -2.55377e+00
       C -4.10037e+00 -3.47788e-01  3.18928e+00
       O -4.40739e+00  4.66372e-01  4.03929e+00
       N -2.82934e+00 -9.11582e-01  3.19015e+00
       H -2.39056e+00 -1.11262e+00  2.29791e+00
       H -2.26192e+00 -6.30629e-01  3.91154e+00
       O -1.10614e+01 -4.51297e+00 -2.62751e+01
       H -1.04969e+01 -5.08369e+00 -2.57559e+01
       H -1.09254e+01 -4.97176e+00 -2.71516e+01
       O -1.92222e+01 -5.42088e+00 -8.69701e+00
       H -1.91485e+01 -5.42754e+00 -7.78075e+00
       H -1.94433e+01 -4.48029e+00 -8.81773e+00
       O  1.52401e+01 -1.34972e+01 -6.14893e+00
       H  1.55782e+01 -1.28505e+01 -6.79272e+00
       H  1.42885e+01 -1.35676e+01 -6.35975e+00
       O -1.78374e+01 -1.48201e+01 -2.35296e+01
       H -1.76630e+01 -1.40777e+01 -2.41529e+01
       H -1.87186e+01 -1.51523e+01 -2.39545e+01
       O -1.08951e+01 -8.39595e+00 -1.54645e+01
       H -1.15247e+01 -7.86420e+00 -1.59433e+01
       H -1.11150e+01 -8.23350e+00 -1.45749e+01
       O  2.31320e+01 -2.28220e+01  2.08028e+01
       H  2.31306e+01 -2.38037e+01  2.05192e+01
       H  2.26084e+01 -2.27763e+01  2.15732e+01
       O -1.57083e+01 -8.47811e+00 -6.32922e+00
       H -1.56301e+01 -9.38399e+00 -6.31094e+00
       H -1.56131e+01 -8.37318e+00 -7.25962e+00
       O  2.01062e+01 -2.45855e+01 -1.68542e+01
       H  1.92478e+01 -2.41551e+01 -1.69798e+01
       H  2.00350e+01 -2.51825e+01 -1.75378e+01
       O -1.26134e+01 -2.03787e+01 -1.74259e+00
       H -1.31346e+01 -2.11535e+01 -1.50790e+00
       H -1.20497e+01 -2.02668e+01 -9.44012e-01
       O  1.21933e+01 -2.13448e+01 -1.02394e+01
       H  1.17408e+01 -2.07810e+01 -9.55681e+00
       H  1.26249e+01 -2.07516e+01 -1.08840e+01
       O -2.77756e+01 -1.27759e+01 -2.48528e+00
       H -2.80061e+01 -1.36229e+01 -2.00747e+00
       H -2.85326e+01 -1.26768e+01 -3.16106e+00
       O  3.74569e+00 -2.61311e+01 -3.72974e+00
       H  4.20740e+00 -2.53231e+01 -3.97948e+00
       H  4.43610e+00 -2.67374e+01 -4.03330e+00
       O  5.62934e+00  1.73256e+01 -1.02819e+01
       H  5.14677e+00  1.65838e+01 -1.07758e+01
       H  5.44523e+00  1.70144e+01 -9.35221e+00
       O -3.24494e+01 -9.80908e+00 -7.57549e+00
       H -3.16942e+01 -1.04553e+01 -7.53440e+00
       H -3.30176e+01 -1.02485e+01 -8.14427e+00
       O -6.72434e+00 -1.68850e+01 -2.24605e+01
       H -7.28277e+00 -1.61066e+01 -2.23117e+01
       H -5.96527e+00 -1.64913e+01 -2.28018e+01
       O -4.47237e+00 -1.11230e+01 -1.09474e+01
       H -3.79811e+00 -1.04949e+01 -1.07143e+01
       H -3.95018e+00 -1.16177e+01 -1.16371e+01
       O -1.11264e+01 -1.91885e+01 -3.79851e+00
       H -1.17914e+01 -1.89716e+01 -4.45310e+00
       H -1.17210e+01 -1.96228e+01 -3.22684e+00
       O -2.47288e-01 -1.72811e+01 -2.30365e+01
       H -5.67465e-01 -1.73712e+01 -2.39507e+01
       H  6.97075e-01 -1.75173e+01 -2.31259e+01
       O -6.21682e+00 -1.66205e+01 -1.09409e+01
       H -7.13523e+00 -1.69721e+01 -1.09457e+01
       H -5.88763e+00 -1.70479e+01 -1.17331e+01
       O -3.35267e+00  1.76192e+01 -3.47275e+00
       H -3.20659e+00  1.73318e+01 -2.56963e+00
       H -3.37186e+00  1.67820e+01 -3.92277e+00
       O -2.40908e+01 -6.23062e+00 -9.22185e+00
       H -2.41724e+01 -7.03947e+00 -9.72323e+00
       H -2.31281e+01 -6.25754e+00 -9.08275e+00
       O -2.68421e+01 -7.44734e+00 -1.09060e+01
       H -2.66284e+01 -6.48335e+00 -1.11617e+01
       H -2.75528e+01 -7.56535e+00 -1.15195e+01
       O  2.32342e+01 -1.78376e+01 -2.05838e+01
       H  2.36483e+01 -1.81033e+01 -1.97701e+01
       H  2.40167e+01 -1.80040e+01 -2.12206e+01
       O -1.60722e+01 -1.61945e+01 -1.42574e+01
       H -1.58074e+01 -1.67794e+01 -1.49864e+01
       H -1.67454e+01 -1.56794e+01 -1.47328e+01
       O -4.62118e+00 -2.12223e+01 -1.47011e+01
       H -4.99469e+00 -2.19935e+01 -1.51489e+01
       H -5.31494e+00 -2.10324e+01 -1.40108e+01
       O -1.59660e+01 -1.17803e+01  2.34856e+01
       H -1.66473e+01 -1.17823e+01  2.42166e+01
       H -1.64406e+01 -1.21872e+01  2.27377e+01
       O -6.85729e+00 -3.27299e+01 -2.05240e+01
       H -7.62694e+00 -3.23729e+01 -2.08472e+01
       H -6.30086e+00 -3.20499e+01 -2.08530e+01
       O -8.15484e+00 -5.43457e+00  1.68710e+01
       H -8.15343e+00 -5.22278e+00  1.58740e+01
       H -7.28294e+00 -5.74287e+00  1.69818e+01
       O -1.33238e+01  5.91490e-01  7.83054e-01
       H -1.42818e+01  4.50363e-01  7.89745e-01
       H -1.33917e+01  1.49929e+00  3.76360e-01
       O -2.64612e+01 -6.61995e+00  2.41858e+01
       H -2.73204e+01 -6.71160e+00  2.46002e+01
       H -2.66951e+01 -6.79853e+00  2.32386e+01
       O -1.95842e+01 -1.54595e+01 -1.72372e+01
       H -2.02419e+01 -1.49265e+01 -1.76931e+01
       H -2.01030e+01 -1.56058e+01 -1.63665e+01
       O  4.14961e+00 -1.11052e+01 -2.00170e+01
       H  5.10954e+00 -1.11194e+01 -2.00794e+01
       H  3.94482e+00 -1.13017e+01 -2.09008e+01
       O  2.73241e+00 -8.35117e+00 -2.99651e+01
       H  2.90513e+00 -9.07406e+00 -3.06542e+01
       H  2.46765e+00 -8.81090e+00 -2.91842e+01
       O -8.03056e+00 -2.28395e+01  4.97005e+00
       H -7.91612e+00 -2.18831e+01  4.88158e+00
       H -8.05628e+00 -2.29747e+01  5.93645e+00
       O -1.45605e+01 -1.40178e+01 -1.35915e+01
       H -1.39508e+01 -1.43132e+01 -1.29428e+01
       H -1.50364e+01 -1.48182e+01 -1.38699e+01
       O -2.51373e+01 -2.04143e+01  1.99790e+01
       H -2.55391e+01 -2.08210e+01  1.91989e+01
       H -2.45100e+01 -2.11477e+01  2.02431e+01
       O -1.59490e+01 -2.53801e+01 -3.92276e+00
       H -1.68540e+01 -2.54164e+01 -3.69667e+00
       H -1.59517e+01 -2.56193e+01 -4.85726e+00
       O  5.62660e-01 -3.58218e+00 -2.73693e+01
       H  8.94126e-01 -4.28386e+00 -2.79496e+01
       H  4.44426e-01 -4.07736e+00 -2.64977e+01
       O -1.15191e+01  2.27748e+00 -1.13885e+01
       H -1.07079e+01  1.89348e+00 -1.17996e+01
       H -1.22069e+01  1.61984e+00 -1.16449e+01
       O -1.27769e+00 -2.27963e+01 -1.71857e+01
       H -8.37092e-01 -2.29420e+01 -1.62361e+01
       H -1.91870e+00 -2.35427e+01 -1.71589e+01
       O  1.59354e+01 -1.96181e+01 -8.77353e+00
       H  1.53644e+01 -2.03618e+01 -8.37642e+00
       H  1.54504e+01 -1.93489e+01 -9.49986e+00
       O -1.34150e+01 -3.29355e+00 -3.37549e+01
       H -1.34610e+01 -4.25564e+00  1.34478e+01
       H -1.42252e+01 -3.24267e+00 -3.31814e+01
       O  1.44700e+01 -2.22502e+01 -1.23588e+01
       H  1.36492e+01 -2.27633e+01 -1.22997e+01
       H  1.41751e+01 -2.16556e+01 -1.30569e+01
       O -1.90120e+01 -1.00510e+01 -2.06928e+01
       H -1.98394e+01 -9.70605e+00 -2.11377e+01
       H -1.94358e+01 -1.05954e+01 -1.99810e+01
       O -2.53057e+01 -2.18238e+01 -1.34129e+01
       H -2.43938e+01 -2.21502e+01 -1.33403e+01
       H -2.54816e+01 -2.17291e+01 -1.24101e+01
       O -5.61916e+00 -1.39573e+01  1.03025e+01
       H -4.96941e+00 -1.46029e+01  1.06102e+01
       H -5.05424e+00 -1.32979e+01  9.92605e+00
       O -1.57135e+01 -2.12815e+01  2.77244e+00
       H -1.58834e+01 -2.21572e+01  3.16937e+00
       H -1.48456e+01 -2.10629e+01  3.23620e+00
       O  1.04415e+01 -1.07428e+01 -1.24590e+01
       H  1.11574e+01 -1.09537e+01 -1.18592e+01
       H  9.70265e+00 -1.09734e+01 -1.19699e+01
       O  6.94360e+00 -8.18736e+00 -1.26829e+01
       H  7.86067e+00 -7.96272e+00 -1.27455e+01
       H  6.51563e+00 -7.30218e+00 -1.28120e+01
       O -2.19367e+01  3.92147e+00 -1.50789e+01
       H -2.15267e+01  4.69553e+00 -1.47227e+01
       H -2.23311e+01  4.22841e+00 -1.59387e+01
       O -1.60705e+01 -6.88929e+00 -2.57598e+01
       H -1.59091e+01 -7.76016e+00 -2.54054e+01
       H -1.57522e+01 -7.03989e+00 -2.66608e+01
       O -1.59249e+01 -1.10706e+01 -1.75749e+01
       H -1.53294e+01 -1.15817e+01 -1.69246e+01
       H -1.58139e+01 -1.01902e+01 -1.71791e+01
       O -1.04942e+01 -1.08797e+01 -2.59930e+01
       H -1.08116e+01 -1.16879e+01 -2.55446e+01
       H -9.54636e+00 -1.10566e+01 -2.59509e+01
       O -1.07020e+01 -4.26748e+00 -1.00460e+01
       H -1.14437e+01 -3.79548e+00 -9.64699e+00
       H -1.00627e+01 -4.33485e+00 -9.29913e+00
       O  5.18154e+00 -9.21752e+00 -1.47474e+01
       H  5.44436e+00 -8.36129e+00 -1.52317e+01
       H  5.56822e+00 -8.88869e+00 -1.38833e+01
       O -1.71308e+01 -1.22873e+01  2.19002e+00
       H -1.64836e+01 -1.25481e+01  2.86378e+00
       H -1.76721e+01 -1.16275e+01  2.68753e+00
       O -1.47751e+01 -4.95298e+00  2.42266e-01
       H -1.47899e+01 -4.70146e+00 -6.60693e-01
       H -1.39306e+01 -5.44833e+00  2.41612e-01
       O -5.22916e+00 -1.28522e+01 -2.07844e+01
       H -4.87405e+00 -1.30440e+01 -2.16410e+01
       H -5.46463e+00 -1.37164e+01 -2.04557e+01
       O -3.02675e+00 -1.80433e+01 -1.44474e+01
       H -3.34966e+00 -1.85064e+01 -1.52166e+01
       H -3.84515e+00 -1.82642e+01 -1.39130e+01
       O -2.65850e+00  2.28867e+01  6.47784e+00
       H -1.84539e+00  2.28570e+01  5.87107e+00
       H -3.28257e+00  2.34019e+01  5.92469e+00
       O -8.37364e+00 -2.25114e+00 -2.59803e+01
       H -8.23152e+00 -1.33910e+00 -2.62535e+01
       H -8.34793e+00 -2.06773e+00 -2.50521e+01
       O -7.68053e+00  2.74869e+01  4.97287e+00
       H -8.31628e+00  2.80572e+01  4.44672e+00
       H -7.76385e+00  2.77645e+01  5.91752e+00
       O -9.19093e+00 -1.63610e+01 -1.24264e+01
       H -9.49356e+00 -1.68132e+01 -1.32134e+01
       H -8.81176e+00 -1.54869e+01 -1.25962e+01
       O  1.11376e+00 -1.39980e+01 -1.32807e+00
       H  5.79685e-01 -1.38790e+01 -2.11171e+00
       H  1.74749e+00 -1.32145e+01 -1.31741e+00
       O -4.47938e+00 -8.60722e+00  7.88013e+00
       H -5.41164e+00 -8.92195e+00  7.74949e+00
       H -4.01829e+00 -9.03012e+00  7.09999e+00
       O -1.20068e+01 -3.11632e+00  1.65078e+01
       H -1.22296e+01 -3.15417e+00  1.55695e+01
       H -1.10765e+01 -3.38848e+00  1.65707e+01
       O -2.12289e+01 -1.12273e+01 -1.19459e+01
       H -2.12261e+01 -1.13923e+01 -1.09730e+01
       H -2.20899e+01 -1.16707e+01 -1.21702e+01
       O  2.06625e+00 -1.69226e+01 -9.38279e+00
       H  2.31722e+00 -1.73036e+01 -1.02647e+01
       H  2.58238e+00 -1.75287e+01 -8.86003e+00
       O -1.57337e+01 -2.10366e+01 -1.18772e+01
       H -1.55224e+01 -2.01496e+01 -1.22024e+01
       H -1.49452e+01 -2.15566e+01 -1.20880e+01
       O -3.07073e+01 -2.37907e+01  2.23780e+01
       H -3.04654e+01 -2.40563e+01  2.14765e+01
       H -3.02413e+01 -2.45107e+01  2.28592e+01
       O  2.01598e+01  2.61140e+01  2.40269e+01
       H  1.97499e+01  2.53465e+01  2.43953e+01
       H  2.11307e+01  2.59970e+01  2.43139e+01
       O -3.02993e+00 -1.59281e+01 -7.45322e+00
       H -2.17104e+00 -1.63640e+01 -7.40148e+00
       H -3.53279e+00 -1.65869e+01 -8.04606e+00
       O -1.23337e+01 -1.09285e+01 -1.31596e+01
       H -1.14176e+01 -1.13105e+01 -1.30026e+01
       H -1.24766e+01 -1.14078e+01 -1.39691e+01
       O -1.53769e+01 -5.12796e+00  8.53412e+00
       H -1.47045e+01 -5.59232e+00  8.01878e+00
       H -1.60507e+01 -4.86885e+00  7.87054e+00
       O -1.53566e+01 -1.95103e+01 -2.69384e+01
       H -1.56519e+01 -1.94383e+01 -2.60312e+01
       H -1.45533e+01 -2.00199e+01 -2.69884e+01
       O -2.03574e+01 -1.53181e+01 -2.41519e+01
       H -2.05629e+01 -1.44854e+01 -2.46807e+01
       H -2.09622e+01 -1.59313e+01 -2.46009e+01
       O -3.90082e+00 -1.20298e+01 -1.35046e+01
       H -4.17767e+00 -1.29261e+01 -1.33037e+01
       H -4.41135e+00 -1.20095e+01 -1.43737e+01
       O -1.38554e+01 -1.44324e+01 -1.74713e+01
       H -1.42976e+01 -1.44796e+01 -1.83232e+01
       H -1.39258e+01 -1.35439e+01 -1.71113e+01
       O -1.55231e+01 -1.82541e+01 -1.61752e+01
       H -1.60381e+01 -1.90940e+01 -1.63188e+01
       H -1.54330e+01 -1.79725e+01 -1.71041e+01
       O -1.49855e+01 -1.38018e+01 -7.06831e+00
       H -1.47360e+01 -1.38759e+01 -8.05207e+00
       H -1.41616e+01 -1.36050e+01 -6.59030e+00
       O -1.26338e+01 -1.53014e+01 -1.18515e+01
       H -1.19214e+01 -1.48638e+01 -1.22976e+01
       H -1.24017e+01 -1.51325e+01 -1.09527e+01
       O  1.86388e+01 -1.31594e+01 -1.03991e+01
       H  1.93900e+01 -1.36004e+01 -1.08461e+01
       H  1.90436e+01 -1.28222e+01 -9.56907e+00
       O -4.91914e+00 -2.57603e+01 -2.77629e+00
       H -5.30327e+00 -2.50449e+01 -3.32253e+00
       H -3.95008e+00 -2.57085e+01 -2.98697e+00
       O -2.02747e+01 -2.40667e+01  1.10885e+01
       H -2.08675e+01 -2.33623e+01  1.13948e+01
       H -2.09895e+01 -2.45587e+01  1.05457e+01
       O -1.04498e+01 -9.58465e+00 -3.54153e+00
       H -1.10252e+01 -9.12538e+00 -4.11281e+00
       H -9.85700e+00 -8.82183e+00 -3.20721e+00
       O -1.58426e+01 -2.81651e-01 -1.79790e+01
       H -1.55232e+01  2.35312e-01 -1.72232e+01
       H -1.67477e+01 -3.39765e-01 -1.77741e+01
       O  3.06602e+01 -1.82705e+01 -4.19624e-01
       H  3.08170e+01 -1.80896e+01 -1.38310e+00
       H  3.14983e+01 -1.78651e+01  6.19928e-03
       O  1.18539e+01 -1.37902e+01 -2.37152e+01
       H  1.26388e+01 -1.32579e+01 -2.40306e+01
       H  1.21454e+01 -1.40720e+01 -2.28184e+01
       O  4.54305e+00 -2.31513e+01 -1.25644e+00
       H  5.10424e+00 -2.31156e+01 -4.85731e-01
       H  4.93590e+00 -2.39285e+01 -1.71753e+00
       O -2.18682e+01 -1.69656e+01 -2.15801e+01
       H -2.14274e+01 -1.70796e+01 -2.06830e+01
       H -2.15780e+01 -1.60605e+01 -2.17219e+01
       O -9.43840e-01 -1.25461e+01 -1.35319e+01
       H -1.34213e+00 -1.22283e+01 -1.27209e+01
       H -1.65444e+00 -1.26421e+01 -1.42126e+01
       O  1.98667e+00 -7.18408e+00 -9.27789e+00
       H  2.28435e+00 -7.81555e+00 -8.59283e+00
       H  2.35705e+00 -6.27842e+00 -8.94879e+00
       O -9.51141e+00 -6.33143e+00  2.82990e-01
       H -9.72719e+00 -6.69814e+00 -5.62783e-01
       H -8.82304e+00 -6.99919e+00  4.01022e-01
       O -1.51933e+01  1.23271e+01 -1.07299e+01
       H -1.45207e+01  1.16536e+01 -1.04084e+01
       H -1.54549e+01  1.27156e+01 -9.87805e+00
       O  5.81031e-01 -1.12929e+01 -2.52979e+01
       H -3.13098e-01 -1.09039e+01 -2.54454e+01
       H  8.55142e-01 -1.17196e+01 -2.60872e+01
       O -2.10761e+01 -1.14583e+01  2.33627e+01
       H -2.14678e+01 -1.19139e+01  2.25905e+01
       H -2.03629e+01 -1.09385e+01  2.30783e+01
       O  2.03380e+01 -1.50387e+01  3.59280e+01
       H  1.99478e+01 -1.55880e+01  3.52699e+01
       H  2.11121e+01 -1.47361e+01  3.54913e+01
       O -9.57197e+00 -1.09370e+01 -1.57592e+01
       H -9.86168e+00 -1.00098e+01 -1.56491e+01
       H -8.72764e+00 -1.08262e+01 -1.52647e+01
       O -1.73006e+01 -1.28876e+01 -1.91172e+01
       H -1.68458e+01 -1.23058e+01 -1.84000e+01
       H -1.81373e+01 -1.24853e+01 -1.89663e+01
       O -2.39781e+01 -8.50111e+00  2.70272e+01
       H -2.39411e+01 -7.61098e+00  2.75134e+01
       H -2.49757e+01 -8.72929e+00  2.69537e+01
       O -1.07448e+01 -1.33859e+01 -2.42377e+01
       H -1.02234e+01 -1.33712e+01 -2.34227e+01
       H -1.15114e+01 -1.29624e+01 -2.38397e+01
       O -8.68513e+00 -1.41555e+01 -2.19228e+01
       H -8.65061e+00 -1.33597e+01 -2.13871e+01
       H -7.96878e+00 -1.40639e+01 -2.25764e+01
       O -6.58583e+00  1.88974e+01 -7.76173e+00
       H -6.42364e+00  1.97319e+01 -7.24750e+00
       H -7.30319e+00  1.91558e+01 -8.39811e+00
       O -1.36809e+01 -1.81019e-01 -6.89135e+00
       H -1.29206e+01 -7.11135e-01 -7.20171e+00
       H -1.42095e+01 -8.06273e-01 -6.41870e+00
       O -8.75775e+00 -1.21957e+01  2.12177e+00
       H -9.32531e+00 -1.17389e+01  2.74044e+00
       H -8.42274e+00 -1.14738e+01  1.60851e+00
       O -5.13066e+00 -1.91390e+01 -2.30127e+01
       H -5.34034e+00 -1.88258e+01 -2.39098e+01
       H -5.74721e+00 -1.85438e+01 -2.26145e+01
       O  1.36330e+01 -1.80163e+00 -1.34364e+01
       H  1.31584e+01 -1.74508e+00 -1.42917e+01
       H  1.29464e+01 -1.39965e+00 -1.28600e+01
       O -1.54569e+01 -3.89206e+00  2.06565e+01
       H -1.58561e+01 -3.16917e+00  2.11100e+01
       H -1.50918e+01 -4.46750e+00  2.12856e+01
       O  2.50793e+01 -1.97766e+01  1.82940e+01
       H  2.57693e+01 -1.91664e+01  1.83847e+01
       H  2.42668e+01 -1.94723e+01  1.88019e+01
       O -2.45948e+01 -1.16300e+01  1.34368e+01
       H -2.39249e+01 -1.20563e+01  1.39223e+01
       H -2.49534e+01 -1.23185e+01  1.29255e+01
       O -1.40707e+01  2.12150e+01 -7.24705e+00
       H -1.48385e+01  2.07036e+01 -6.85855e+00
       H -1.40243e+01  2.09258e+01 -8.19636e+00
       O -1.38157e+01 -9.93330e+00  1.58029e+01
       H -1.41712e+01 -9.18868e+00  1.53039e+01
       H -1.40266e+01 -9.80802e+00  1.67575e+01
       O  2.25169e+01 -1.99947e+01  1.52054e+01
       H  2.33954e+01 -2.01515e+01  1.54484e+01
       H  2.26334e+01 -1.93247e+01  1.45261e+01
       O  1.16423e+01 -2.57026e+01 -1.81645e+01
       H  1.15735e+01 -2.47293e+01 -1.81239e+01
       H  1.19981e+01 -2.59755e+01 -1.72690e+01
       O -1.02094e+01 -1.63771e+01 -5.12274e+00
       H -1.00720e+01 -1.71959e+01 -4.70035e+00
       H -9.62764e+00 -1.57836e+01 -4.62594e+00
       O  7.32664e+00 -1.73747e+01 -4.05985e+00
       H  6.75987e+00 -1.73960e+01 -3.29210e+00
       H  7.36331e+00 -1.64648e+01 -4.33387e+00
       O -9.92857e+00  1.90061e+01 -2.47336e+01
       H -9.76974e+00  1.91736e+01  2.36740e+01
       H -9.59585e+00  1.80681e+01  2.25983e+01
       O  1.42584e+01 -1.58320e+01  2.20625e+01
       H  1.46206e+01 -1.54107e+01 -2.45738e+01
       H  1.50650e+01 -1.62483e+01 -2.58901e+01
       O  3.54109e-01  1.49416e+01  3.71050e+00
       H  3.91796e-01  1.53491e+01  4.60650e+00
       H  7.18739e-01  1.57143e+01  3.20889e+00
       O -1.18254e+01  2.40907e+01  1.82673e+01
       H -1.26835e+01  2.45451e+01  1.83270e+01
       H -1.22109e+01  2.32484e+01  1.84151e+01
       O  2.42953e+01 -3.24161e+00  3.59311e+01
       H  2.41926e+01 -3.38986e+00  3.49678e+01
       H  2.47791e+01 -4.02894e+00  3.61575e+01
       O  1.94791e+01 -1.40956e+01 -1.52491e+01
       H  2.02910e+01 -1.35778e+01 -1.53649e+01
       H  1.87695e+01 -1.34745e+01 -1.49366e+01
       O -3.26333e+00 -1.24066e+01 -1.87044e+01
       H -3.77125e+00 -1.25064e+01 -1.95396e+01
       H -2.55819e+00 -1.30381e+01 -1.88416e+01
       O -1.32105e+01 -2.04960e+01 -7.65209e+00
       H -1.25628e+01  2.75656e+01 -7.15957e+00
       H -1.40694e+01 -1.99327e+01 -7.77050e+00
       O  2.69208e+01 -4.01244e+00  2.35611e+01
       H  2.61972e+01 -4.27529e+00  2.29363e+01
       H  2.76783e+01 -4.22913e+00  2.29905e+01
       O -2.49187e+01  5.36541e+00 -1.62269e+00
       H -2.42120e+01  5.52671e+00 -2.25659e+00
       H -2.47125e+01  6.11331e+00 -1.00696e+00
       O  1.87288e+01 -9.68758e+00 -1.43032e+01
       H  1.94540e+01 -9.10521e+00 -1.47603e+01
       H  1.83170e+01 -9.00181e+00 -1.37103e+01
       O -1.27055e+01 -1.54797e+01  2.62261e+01
       H -1.23349e+01 -1.46410e+01  2.66037e+01
       H -1.35208e+01 -1.51575e+01  2.58646e+01
       O -1.27667e+01 -1.05638e+01 -2.58348e+00
       H -1.31513e+01 -1.09284e+01 -3.47991e+00
       H -1.19032e+01 -1.02141e+01 -2.89500e+00
       O  2.47489e+00 -2.14242e+01 -1.40079e+01
       H  3.11002e+00 -2.07166e+01 -1.37965e+01
       H  2.05268e+00 -2.15545e+01 -1.31011e+01
       O -1.92337e+01 -6.64912e+00 -1.23018e+01
       H -1.93948e+01 -7.26625e+00 -1.30045e+01
       H -1.86517e+01 -7.25782e+00 -1.17751e+01
       O -2.01011e+01 -2.05353e+01  2.01505e+01
       H -2.01615e+01 -2.13948e+01  1.97710e+01
       H -1.93567e+01 -2.01755e+01  1.97230e+01
       O  3.64330e+00 -3.17233e+01 -1.52092e+00
       H  2.78315e+00 -3.18863e+01 -1.07016e+00
       H  3.90542e+00 -3.10756e+01 -8.38745e-01
       O -1.13335e+01 -1.30453e+01  1.93508e+01
       H -1.19602e+01 -1.35642e+01  1.87967e+01
       H -1.05896e+01 -1.36858e+01  1.95862e+01
       O  1.24280e+00 -3.65800e+00 -9.69209e+00
       H  1.58672e+00 -2.78659e+00 -9.92300e+00
       H  1.88971e+00 -4.09833e+00 -9.10995e+00
       O -1.37013e+01 -8.42320e+00 -1.30553e+01
       H -1.32923e+01 -9.30464e+00 -1.30352e+01
       H -1.45915e+01 -8.73594e+00 -1.32001e+01
       O  1.78012e+01 -2.13156e+01 -1.33425e+01
       H  1.87261e+01 -2.11865e+01 -1.34180e+01
       H  1.75637e+01 -2.08224e+01 -1.25387e+01
       O -1.09566e+01 -1.86822e+01 -7.61476e+00
       H -1.07526e+01 -1.77532e+01 -7.57718e+00
       H -1.08972e+01 -1.89359e+01 -8.53922e+00
       O -1.70824e+01 -1.52367e+01 -1.67253e+01
       H -1.80212e+01 -1.51951e+01 -1.70762e+01
       H -1.66662e+01 -1.56390e+01 -1.74938e+01
       O -1.11027e+00 -2.38477e+01 -2.40469e+01
       H -1.93859e+00 -2.34134e+01 -2.36668e+01
       H -3.79130e-01 -2.31957e+01 -2.39561e+01
       O  1.47288e+01 -1.97498e+01 -1.73067e+01
       H  1.54183e+01 -1.99110e+01 -1.66508e+01
       H  1.52599e+01 -1.93003e+01 -1.79945e+01
       O  1.89596e+01  2.42089e+01  9.96646e+00
       H  1.96642e+01  2.45110e+01  1.05488e+01
       H  1.88412e+01  2.50822e+01  9.55142e+00
       O -1.00162e+01 -4.64648e+00 -1.26133e+01
       H -1.00244e+01 -3.73712e+00 -1.29835e+01
       H -1.02286e+01 -4.49896e+00 -1.16314e+01
       O  1.75503e+00 -3.15777e+01 -5.85741e+00
       H  1.90005e+00  1.49172e+01 -5.90777e+00
       H  1.45861e+00 -3.13093e+01 -6.74687e+00
       O -3.07870e+00 -1.06436e+01 -2.19420e+01
       H -3.60124e+00 -1.00174e+01 -2.14192e+01
       H -3.66585e+00 -1.06109e+01 -2.27125e+01
       O -1.91535e+01 -3.15029e+01  7.60070e+00
       H -1.89660e+01 -3.21404e+01  6.94058e+00
       H -1.97766e+01 -3.08692e+01  7.09947e+00
       O -1.87530e+00  9.63959e+00 -3.17432e+00
       H -2.76947e+00  9.88468e+00 -2.84353e+00
       H -1.79340e+00  8.66607e+00 -2.84744e+00
       O -2.13273e+01 -9.67245e+00 -7.43663e+00
       H -2.14721e+01 -1.05640e+01 -7.05678e+00
       H -2.03377e+01 -9.41971e+00 -7.13075e+00
       O  2.78967e+01 -1.32124e+01  1.37440e+01
       H  2.69999e+01 -1.36448e+01  1.39394e+01
       H  2.83475e+01 -1.39351e+01  1.31779e+01
       O -8.43232e+00 -1.71833e+01  3.04152e+00
       H -8.60991e+00 -1.77344e+01  2.29756e+00
       H -8.01978e+00 -1.64564e+01  2.57289e+00
       O  1.56701e+01 -1.87748e+01 -6.12959e+00
       H  1.56126e+01 -1.91356e+01 -7.05747e+00
       H  1.60223e+01  2.96520e+01 -6.22510e+00
       O -1.15712e+01  1.91200e+01  2.09620e+00
       H -1.24049e+01  1.95621e+01  2.16131e+00
       H -1.17971e+01  1.83308e+01  1.53676e+00
       O -3.25564e+00 -6.84908e+00 -2.35963e+01
       H -3.88862e+00 -7.44199e+00 -2.30693e+01
       H -2.54195e+00 -6.59456e+00 -2.29325e+01
       O  2.48334e+01 -1.66822e+01  2.19054e+01
       H  2.42613e+01 -1.70363e+01  2.11834e+01
       H  2.41926e+01 -1.68116e+01  2.26311e+01
       O  1.36196e+01  2.04086e+00 -6.43396e-01
       H  1.33192e+01  2.05666e+00  3.00541e-01
       H  1.30841e+01  1.31997e+00 -9.53899e-01
       O  9.97629e+00 -1.17820e+01 -2.36402e+01
       H  9.08172e+00 -1.20539e+01 -2.33570e+01
       H  1.05680e+01 -1.25006e+01 -2.33508e+01
       O -9.82122e+00  2.55213e+01 -7.06216e+00
       H -9.32748e+00  2.46710e+01 -7.00135e+00
       H -1.01582e+01  2.53266e+01 -7.99338e+00
       O -5.67811e+00 -1.79036e+01 -1.96857e+01
       H -5.76889e+00 -1.69794e+01 -1.93936e+01
       H -4.72631e+00 -1.79583e+01 -1.96482e+01
       O  4.27395e-01 -5.35095e+00 -1.72793e+01
       H  5.83940e-01 -4.37971e+00 -1.73861e+01
       H  1.32206e+00 -5.71153e+00 -1.72571e+01
       O -4.54363e+00 -1.12661e+01  1.10659e+01
       H -5.25773e+00 -1.11549e+01  1.17937e+01
       H -5.11823e+00 -1.10625e+01  1.03474e+01
       O -8.61458e+00 -2.02368e+01 -2.57091e+01
       H -8.42307e+00 -1.93350e+01 -2.53849e+01
       H -8.74975e+00 -2.07363e+01 -2.48936e+01
       O  8.21019e+00 -2.84606e+00 -2.79461e+01
       H  7.79874e+00 -1.99498e+00 -2.83342e+01
       H  7.42404e+00 -3.30097e+00 -2.78258e+01
       O -1.26514e+01 -8.37859e+00  2.19346e+01
       H -1.20795e+01 -9.19219e+00  2.20836e+01
       H -1.35587e+01 -8.67625e+00  2.21710e+01
       O -9.57659e+00 -1.61879e+01 -7.65244e+00
       H -9.65479e+00 -1.60705e+01 -6.62832e+00
       H -8.64285e+00 -1.61195e+01 -7.86313e+00
       O -2.11106e+01 -8.68978e+00  2.59267e+01
       H -2.17986e+01 -8.71533e+00  2.52307e+01
       H -2.11341e+01 -7.76380e+00  2.61659e+01
       O  9.37137e+00 -7.78185e+00 -9.75376e+00
       H  1.01976e+01 -8.24115e+00 -9.70581e+00
       H  8.75534e+00 -8.38707e+00 -1.02020e+01
       O -8.51369e+00  1.14352e+00 -7.79422e+00
       H -8.21933e+00  3.21576e-01 -8.26087e+00
       H -8.33339e+00  1.90326e+00 -8.35752e+00
       O -3.79299e+00 -2.17975e-01 -2.64462e+01
       H -4.30139e+00  6.23435e-01 -2.64971e+01
       H -2.97434e+00 -7.74208e-02 -2.69861e+01
       O -4.13813e+00 -1.74537e+01 -9.35270e+00
       H -3.69301e+00 -1.82284e+01 -9.65224e+00
       H -4.75462e+00 -1.71296e+01 -1.00169e+01
       O -1.85518e+00 -1.47752e+01 -2.46181e+01
       H -1.13438e+00 -1.53898e+01 -2.46151e+01
       H -1.42237e+00 -1.39563e+01 -2.41895e+01
       O -1.90949e+00 -7.41538e+00 -1.52260e+01
       H -2.14982e+00 -8.06350e+00 -1.45177e+01
       H -1.73556e+00 -6.56811e+00 -1.47235e+01
       O -6.84555e+00  2.51498e+01 -1.03831e+01
       H -7.79768e+00  2.51620e+01 -1.02052e+01
       H -6.75025e+00  2.41974e+01 -1.06219e+01
       O -5.28105e+00 -2.13671e+01 -5.62828e+00
       H -4.62385e+00 -2.06536e+01 -5.56266e+00
       H -5.33362e+00 -2.14606e+01 -6.55525e+00
       O -2.18613e+00  1.25528e+01 -1.14373e+01
       H -1.47270e+00  1.21813e+01 -1.19868e+01
       H -2.53454e+00  1.17074e+01 -1.10521e+01
       O -8.83469e+00 -1.78567e+01 -2.41617e+01
       H -8.27949e+00 -1.73912e+01 -2.34724e+01
       H -9.41912e+00 -1.83278e+01 -2.36392e+01
       O -1.89116e+01 -1.62094e+01 -1.20848e+01
       H -1.96457e+01 -1.55838e+01 -1.21425e+01
       H -1.92724e+01 -1.67586e+01 -1.14077e+01
       O -1.75164e+01 -2.12197e+01 -2.04918e+01
       H -1.65829e+01 -2.13940e+01 -2.02478e+01
       H -1.80124e+01 -2.19176e+01 -2.00528e+01
       O  9.78647e+00  2.24599e+01 -1.06068e+01
       H  1.04090e+01  2.16803e+01 -1.04676e+01
       H  9.58119e+00  2.27575e+01 -9.67754e+00
       O -9.10554e+00  2.34754e+01 -2.11032e+01
       H -8.14290e+00  2.34164e+01 -2.09267e+01
       H -9.10600e+00  2.30906e+01 -2.20056e+01
       O  2.40066e+01 -2.29008e+01  1.64029e+01
       H  2.31654e+01 -2.23786e+01  1.65251e+01
       H  2.47007e+01 -2.21937e+01  1.64542e+01
       O -5.20487e+00 -7.60031e+00 -2.18809e+01
       H -5.60108e+00 -8.45094e+00 -2.15757e+01
       H -5.80015e+00 -7.04309e+00 -2.13493e+01
       O  1.84315e+01  2.79531e+01 -7.81533e+00
       H  1.85364e+01  2.70581e+01 -8.11372e+00
       H  1.75285e+01  2.81447e+01 -8.19035e+00
       O -2.40265e+01 -9.64003e+00 -8.76600e+00
       H -2.37674e+01 -9.36054e+00 -9.69108e+00
       H -2.31935e+01 -9.88482e+00 -8.38036e+00
       O -2.72736e+01 -1.97556e+00 -3.28336e+00
       H -2.63533e+01 -2.17690e+00 -3.07957e+00
       H -2.72191e+01 -1.04261e+00 -3.18352e+00
       O -7.00111e+00 -7.05236e+00 -1.19893e+01
       H -6.05410e+00 -7.13315e+00 -1.22591e+01
       H -7.13494e+00 -6.08463e+00 -1.22067e+01
       O -1.01421e+01  9.48196e+00  1.62559e+01
       H -1.04450e+01  9.29048e+00  1.72327e+01
       H -9.98038e+00  1.03910e+01  1.63305e+01
       O  2.91721e+00  2.49764e+01 -5.74212e+00
       H  2.86699e+00 -2.32577e+01 -6.31068e+00
       H  2.74007e+00  2.46197e+01 -4.83392e+00
       O -2.08547e+01 -1.21424e+01 -9.38766e+00
       H -2.09011e+01 -1.30689e+01 -9.77339e+00
       H -2.11086e+01 -1.23923e+01 -8.54276e+00
       O -1.63309e+01  1.70919e+01 -1.19786e+01
       H -1.72366e+01  1.69142e+01 -1.23242e+01
       H -1.60735e+01  1.79314e+01 -1.24444e+01
       O -1.78564e+01 -1.35642e+01 -7.32618e+00
       H -1.81612e+01 -1.44699e+01 -7.08808e+00
       H -1.68961e+01 -1.37726e+01 -7.06045e+00
       O -3.24405e+00 -4.59542e+00 -1.43224e+01
       H -3.31449e+00 -3.58626e+00 -1.42499e+01
       H -2.39613e+00 -4.73212e+00 -1.39184e+01
       O -6.30351e+00 -1.00158e+01 -2.12205e+01
       H -6.94883e+00 -1.02977e+01 -2.19352e+01
       H -5.90913e+00 -1.08380e+01 -2.08281e+01
       O -4.15059e+00 -2.12841e+01 -1.80288e+01
       H -4.09197e+00 -2.09308e+01 -1.89069e+01
       H -3.24761e+00 -2.15448e+01 -1.78482e+01
       O  1.94950e+01 -1.63794e+01 -9.19595e+00
       H  1.99832e+01 -1.58470e+01 -9.86957e+00
       H  1.89627e+01 -1.67859e+01 -9.80551e+00
       O -1.13613e+01 -6.85109e+00 -2.07688e+01
       H -1.15393e+01 -7.79853e+00 -2.05116e+01
       H -1.20583e+01 -6.34949e+00 -2.04002e+01
       O -2.59180e+01 -1.23450e+01 -1.55487e+01
       H -2.61129e+01 -1.17945e+01 -1.47928e+01
       H -2.52128e+01 -1.18790e+01 -1.60215e+01
       O -2.81353e+00 -1.09003e+01 -6.58004e+00
       H -1.97349e+00 -1.10088e+01 -7.03282e+00