LAMMPS (2 Aug 2023)
  using 1 OpenMP thread(s) per MPI task
Switching to CHARMM coulomb energy conversion constant (src/KSPACE/pair_lj_charmmfsw_coul_long.cpp:69)
Reading data file ...
  orthogonal box = (-23.733071 -23.733071 -23.733071) to (23.733071 23.733071 23.733071)
  1 by 1 by 1 MPI processor grid
  reading atoms ...
  11135 atoms
  reading velocities ...
  11135 velocities
  scanning bonds ...
  4 = max bonds/atom
  scanning angles ...
  6 = max angles/atom
  scanning dihedrals ...
  14 = max dihedrals/atom
  scanning impropers ...
  2 = max impropers/atom
  reading bonds ...
  7432 bonds
  reading angles ...
  3755 angles
  reading dihedrals ...
  78 dihedrals
  reading impropers ...
  6 impropers
Finding 1-2 1-3 1-4 neighbors ...
  special bond factors lj:    0        0        0       
  special bond factors coul:  0        0        0       
     4 = max # of 1-2 neighbors
     7 = max # of 1-3 neighbors
    14 = max # of 1-4 neighbors
    18 = max # of special neighbors
  special bonds CPU = 0.004 seconds
  read_data CPU = 0.112 seconds
17 atoms in group qm
1 atoms in group ca
1 atoms in group cl
16 atoms in group qm_no_ca
System init for delete_bonds ...
PPPM initialization ...
  using 12-bit tables for long-range coulomb (src/kspace.cpp:342)
  G vector (1/distance) = 0.28005584
  grid = 54 54 54
  stencil order = 5
  estimated absolute RMS force accuracy = 0.00037384512
  estimated relative force accuracy = 1.1257967e-06
  using double precision FFTW3
  3d grid and FFT values/proc = 226981 157464
Generated 136 of 136 mixed pair_coeff terms from arithmetic mixing rule
Neighbor list info ...
  update: every = 1 steps, delay = 0 steps, check = yes
  max neighbors/atom: 2000, page size: 100000
  master list distance cutoff = 14
  ghost atom cutoff = 14
  binsize = 7, bins = 7 7 7
  1 neighbor lists, perpetual/occasional/extra = 1 0 0
  (1) pair lj/charmmfsw/coul/long, perpetual
      attributes: half, newton on
      pair build: half/bin/newton
      stencil: half/bin/3d
      bin: standard
Deleting bonds ...
  7416 total bonds, 7416 turned on, 0 turned off
  3725 total angles, 3725 turned on, 0 turned off
  38 total dihedrals, 38 turned on, 0 turned off
  6 total impropers, 6 turned on, 0 turned off
Setting atom values ...
  16 settings made for charge
Setting atom values ...
  1 settings made for charge
WARNING: No fixes with time integration, atoms won't move (src/verlet.cpp:60)
PPPM initialization ...
  using 12-bit tables for long-range coulomb (src/kspace.cpp:342)
  G vector (1/distance) = 0.28005499
  grid = 54 54 54
  stencil order = 5
  estimated absolute RMS force accuracy = 0.00037369896
  estimated relative force accuracy = 1.1253566e-06
  using double precision FFTW3
  3d grid and FFT values/proc = 226981 157464
Generated 136 of 136 mixed pair_coeff terms from arithmetic mixing rule
WARNING: Neighbor exclusions used with KSpace solver may give inconsistent Coulombic energies (src/neighbor.cpp:654)
Setting up Verlet run ...
  Unit style    : real
  Current step  : 0
  Time step     : 1
Per MPI rank memory allocation (min/avg/max) = 91.9 | 91.9 | 91.9 Mbytes
------------ Step              0 ----- CPU =            0 (sec) -------------
TotEng   =    -25886.4659 KinEng   =      9907.0703 Temp     =       298.5106 
PotEng   =    -35793.5362 E_bond   =      3744.1043 E_angle  =      2113.3594 
E_dihed  =         1.2061 E_impro  =         0.4650 E_vdwl   =      5349.7072 
E_coul   =    155505.6104 E_long   =   -202507.9886 Press    =      -590.4834
------------ Step              1 ----- CPU =    0.8176514 (sec) -------------
TotEng   =    -25766.3216 KinEng   =      9907.0703 Temp     =       298.5106 
PotEng   =    -35673.3919 E_bond   =      3814.9474 E_angle  =      2156.5756 
E_dihed  =         1.2119 E_impro  =         0.3161 E_vdwl   =      5434.2441 
E_coul   =    155457.0054 E_long   =   -202537.6924 Press    =       444.9480
------------ Step              2 ----- CPU =     8.028153 (sec) -------------
TotEng   =    -25738.5884 KinEng   =      9907.0703 Temp     =       298.5106 
PotEng   =    -35645.6587 E_bond   =      3851.9563 E_angle  =      2142.4024 
E_dihed  =         1.2311 E_impro  =         0.3122 E_vdwl   =      5437.6934 
E_coul   =    155460.6081 E_long   =   -202539.8623 Press    =       406.9475
------------ Step              3 ----- CPU =     14.30135 (sec) -------------
TotEng   =    -25778.2034 KinEng   =      9907.0703 Temp     =       298.5106 
PotEng   =    -35685.2737 E_bond   =      3823.4759 E_angle  =      2129.1148 
E_dihed  =         1.2885 E_impro  =         0.3082 E_vdwl   =      5440.7347 
E_coul   =    155461.1492 E_long   =   -202541.3450 Press    =       342.9884
------------ Step              4 ----- CPU =     18.61677 (sec) -------------
TotEng   =    -25832.2610 KinEng   =      9907.0703 Temp     =       298.5106 
PotEng   =    -35739.3313 E_bond   =      3779.7342 E_angle  =      2128.5252 
E_dihed  =         1.3733 E_impro  =         0.3185 E_vdwl   =      5443.2422 
E_coul   =    155449.1225 E_long   =   -202541.6472 Press    =       229.5769
------------ Step              5 ----- CPU =     22.88413 (sec) -------------
TotEng   =    -25831.7761 KinEng   =      9907.0703 Temp     =       298.5106 
PotEng   =    -35738.8464 E_bond   =      3783.7819 E_angle  =      2133.1231 
E_dihed  =         1.4737 E_impro  =         0.3236 E_vdwl   =      5446.4106 
E_coul   =    155436.8115 E_long   =   -202540.7708 Press    =       140.9757
------------ Step              6 ----- CPU =     27.27546 (sec) -------------
TotEng   =    -25782.9948 KinEng   =      9907.0703 Temp     =       298.5106 
PotEng   =    -35690.0651 E_bond   =      3840.4272 E_angle  =      2136.4109 
E_dihed  =         1.5539 E_impro  =         0.3167 E_vdwl   =      5450.6860 
E_coul   =    155419.5045 E_long   =   -202538.9643 Press    =        46.6211
------------ Step              7 ----- CPU =     31.42627 (sec) -------------
TotEng   =    -25781.8103 KinEng   =      9907.0703 Temp     =       298.5106 
PotEng   =    -35688.8806 E_bond   =      3856.4626 E_angle  =      2137.9014 
E_dihed  =         1.6019 E_impro  =         0.3111 E_vdwl   =      5455.5237 
E_coul   =    155396.4074 E_long   =   -202537.0888 Press    =        22.7530
------------ Step              8 ----- CPU =     37.13216 (sec) -------------
TotEng   =    -25842.5482 KinEng   =      9907.0703 Temp     =       298.5106 
PotEng   =    -35749.6185 E_bond   =      3809.0660 E_angle  =      2143.9164 
E_dihed  =         1.6305 E_impro  =         0.3121 E_vdwl   =      5460.2301 
E_coul   =    155371.5183 E_long   =   -202536.2917 Press    =        97.8302
------------ Step              9 ----- CPU =     41.35051 (sec) -------------
TotEng   =    -25876.5036 KinEng   =      9907.0703 Temp     =       298.5106 
PotEng   =    -35783.5739 E_bond   =      3774.0129 E_angle  =      2161.8342 
E_dihed  =         1.6347 E_impro  =         0.3230 E_vdwl   =      5463.8173 
E_coul   =    155351.4260 E_long   =   -202536.6219 Press    =       277.8460
------------ Step             10 ----- CPU =     45.31756 (sec) -------------
TotEng   =    -25848.9979 KinEng   =      9907.0703 Temp     =       298.5106 
PotEng   =    -35756.0682 E_bond   =      3801.0533 E_angle  =      2191.8396 
E_dihed  =         1.6218 E_impro  =         0.3534 E_vdwl   =      5467.0281 
E_coul   =    155319.3598 E_long   =   -202537.3241 Press    =       342.8312
------------ Step             11 ----- CPU =     49.43633 (sec) -------------
TotEng   =    -25794.8941 KinEng   =      9907.0703 Temp     =       298.5106 
PotEng   =    -35701.9644 E_bond   =      3847.3209 E_angle  =      2223.5982 
E_dihed  =         1.6083 E_impro  =         0.4172 E_vdwl   =      5471.3896 
E_coul   =    155291.4172 E_long   =   -202537.7158 Press    =       390.7445
------------ Step             12 ----- CPU =      53.4122 (sec) -------------
TotEng   =    -25779.7557 KinEng   =      9907.0703 Temp     =       298.5106 
PotEng   =    -35686.8260 E_bond   =      3849.5767 E_angle  =      2250.3877 
E_dihed  =         1.5905 E_impro  =         0.4902 E_vdwl   =      5476.6819 
E_coul   =    155272.3104 E_long   =   -202537.8633 Press    =       406.4342
------------ Step             13 ----- CPU =     59.45558 (sec) -------------
TotEng   =    -25814.7181 KinEng   =      9907.0703 Temp     =       298.5106 
PotEng   =    -35721.7884 E_bond   =      3796.6697 E_angle  =      2264.5672 
E_dihed  =         1.5728 E_impro  =         0.5794 E_vdwl   =      5482.0152 
E_coul   =    155269.9313 E_long   =   -202537.1240 Press    =       407.8453
------------ Step             14 ----- CPU =     64.79995 (sec) -------------
TotEng   =    -25839.7538 KinEng   =      9907.0703 Temp     =       298.5106 
PotEng   =    -35746.8242 E_bond   =      3751.7997 E_angle  =      2267.8728 
E_dihed  =         1.5659 E_impro  =         0.6541 E_vdwl   =      5487.8043 
E_coul   =    155278.8626 E_long   =   -202535.3835 Press    =       426.2128
------------ Step             15 ----- CPU =     69.96097 (sec) -------------
TotEng   =    -25803.0765 KinEng   =      9907.0703 Temp     =       298.5106 
PotEng   =    -35710.1468 E_bond   =      3773.6612 E_angle  =      2257.1576 
E_dihed  =         1.5781 E_impro  =         0.7544 E_vdwl   =      5493.6043 
E_coul   =    155295.8323 E_long   =   -202532.7347 Press    =       417.1725
------------ Step             16 ----- CPU =     75.14969 (sec) -------------
TotEng   =    -25744.1173 KinEng   =      9907.0703 Temp     =       298.5106 
PotEng   =    -35651.1876 E_bond   =      3831.1213 E_angle  =      2238.2800 
E_dihed  =         1.6199 E_impro  =         0.8904 E_vdwl   =      5498.7116 
E_coul   =    155308.6206 E_long   =   -202530.4313 Press    =       362.6169
------------ Step             17 ----- CPU =     80.26158 (sec) -------------
TotEng   =    -25740.9209 KinEng   =      9907.0703 Temp     =       298.5106 
PotEng   =    -35647.9912 E_bond   =      3840.4822 E_angle  =      2209.2744 
E_dihed  =         1.6908 E_impro  =         1.0573 E_vdwl   =      5501.6468 
E_coul   =    155327.3813 E_long   =   -202529.5240 Press    =       385.2074
------------ Step             18 ----- CPU =     86.06019 (sec) -------------
TotEng   =    -25782.4815 KinEng   =      9907.0703 Temp     =       298.5106 
PotEng   =    -35689.5518 E_bond   =      3795.4851 E_angle  =      2184.6419 
E_dihed  =         1.7694 E_impro  =         1.2609 E_vdwl   =      5500.9225 
E_coul   =    155356.1669 E_long   =   -202529.7986 Press    =       465.1469
------------ Step             19 ----- CPU =     90.65901 (sec) -------------
TotEng   =    -25790.3711 KinEng   =      9907.0703 Temp     =       298.5106 
PotEng   =    -35697.4414 E_bond   =      3776.7217 E_angle  =      2167.0658 
E_dihed  =         1.8518 E_impro  =         1.4703 E_vdwl   =      5496.8161 
E_coul   =    155389.1347 E_long   =   -202530.5018 Press    =       519.0896
------------ Step             20 ----- CPU =     95.97422 (sec) -------------
TotEng   =    -25736.8026 KinEng   =      9907.0703 Temp     =       298.5106 
PotEng   =    -35643.8729 E_bond   =      3805.5799 E_angle  =      2152.8081 
E_dihed  =         1.9135 E_impro  =         1.6391 E_vdwl   =      5490.9841 
E_coul   =    155434.3744 E_long   =   -202531.1721 Press    =       587.6720
------------ Step             21 ----- CPU =     101.1784 (sec) -------------
TotEng   =    -25670.1577 KinEng   =      9907.0703 Temp     =       298.5106 
PotEng   =    -35577.2280 E_bond   =      3842.1568 E_angle  =      2142.9388 
E_dihed  =         1.9678 E_impro  =         1.7966 E_vdwl   =      5485.4959 
E_coul   =    155479.6410 E_long   =   -202531.2248 Press    =       603.8722
------------ Step             22 ----- CPU =      106.475 (sec) -------------
TotEng   =    -25648.2281 KinEng   =      9907.0703 Temp     =       298.5106 
PotEng   =    -35555.2984 E_bond   =      3841.4814 E_angle  =      2134.3521 
E_dihed  =         2.0231 E_impro  =         1.9333 E_vdwl   =      5480.5936 
E_coul   =    155514.9251 E_long   =   -202530.6070 Press    =       553.6696
------------ Step             23 ----- CPU =     113.8981 (sec) -------------
TotEng   =    -25681.5794 KinEng   =      9907.0703 Temp     =       298.5106 
PotEng   =    -35588.6498 E_bond   =      3799.7369 E_angle  =      2123.3670 
E_dihed  =         2.0779 E_impro  =         2.0384 E_vdwl   =      5475.5126 
E_coul   =    155537.8790 E_long   =   -202529.2616 Press    =       420.5533
------------ Step             24 ----- CPU =     119.0177 (sec) -------------
TotEng   =    -25705.2766 KinEng   =      9907.0703 Temp     =       298.5106 
PotEng   =    -35612.3469 E_bond   =      3779.9066 E_angle  =      2115.1441 
E_dihed  =         2.1340 E_impro  =         2.1757 E_vdwl   =      5470.0563 
E_coul   =    155545.9758 E_long   =   -202527.7394 Press    =       219.2755
------------ Step             25 ----- CPU =     123.8782 (sec) -------------
TotEng   =    -25682.3089 KinEng   =      9907.0703 Temp     =       298.5106 
PotEng   =    -35589.3792 E_bond   =      3823.4430 E_angle  =      2108.8496 
E_dihed  =         2.1837 E_impro  =         2.2726 E_vdwl   =      5465.2946 
E_coul   =    155534.3852 E_long   =   -202525.8079 Press    =        24.9939
------------ Step             26 ----- CPU =     128.9658 (sec) -------------
TotEng   =    -25660.6830 KinEng   =      9907.0703 Temp     =       298.5106 
PotEng   =    -35567.7533 E_bond   =      3861.8962 E_angle  =      2112.0142 
E_dihed  =         2.2123 E_impro  =         2.2690 E_vdwl   =      5458.7778 
E_coul   =    155518.9350 E_long   =   -202523.8578 Press    =       -39.2963
------------ Step             27 ----- CPU =     133.7688 (sec) -------------
TotEng   =    -25692.1176 KinEng   =      9907.0703 Temp     =       298.5106 
PotEng   =    -35599.1879 E_bond   =      3838.0338 E_angle  =      2122.3855 
E_dihed  =         2.2068 E_impro  =         2.2011 E_vdwl   =      5450.4386 
E_coul   =    155508.3113 E_long   =   -202522.7651 Press    =       114.6573
------------ Step             28 ----- CPU =      141.466 (sec) -------------
TotEng   =    -25733.4051 KinEng   =      9907.0703 Temp     =       298.5106 
PotEng   =    -35640.4754 E_bond   =      3794.7360 E_angle  =      2145.5914 
E_dihed  =         2.1878 E_impro  =         2.0809 E_vdwl   =      5441.2587 
E_coul   =    155496.6946 E_long   =   -202523.0249 Press    =       341.8327
------------ Step             29 ----- CPU =      146.254 (sec) -------------
TotEng   =    -25734.1412 KinEng   =      9907.0703 Temp     =       298.5106 
PotEng   =    -35641.2116 E_bond   =      3781.1881 E_angle  =      2177.5372 
E_dihed  =         2.1510 E_impro  =         1.8978 E_vdwl   =      5431.3303 
E_coul   =    155488.6050 E_long   =   -202523.9210 Press    =       541.5090
------------ Step             30 ----- CPU =     151.3043 (sec) -------------
TotEng   =    -25704.1053 KinEng   =      9907.0703 Temp     =       298.5106 
PotEng   =    -35611.1756 E_bond   =      3805.1016 E_angle  =      2211.4182 
E_dihed  =         2.1018 E_impro  =         1.6621 E_vdwl   =      5422.6827 
E_coul   =    155471.0491 E_long   =   -202525.1911 Press    =       571.7364
------------ Step             31 ----- CPU =     156.2314 (sec) -------------
TotEng   =    -25683.5463 KinEng   =      9907.0703 Temp     =       298.5106 
PotEng   =    -35590.6166 E_bond   =      3830.9569 E_angle  =      2238.8778 
E_dihed  =         2.0780 E_impro  =         1.4169 E_vdwl   =      5415.7838 
E_coul   =    155446.9722 E_long   =   -202526.7022 Press    =       473.3332
------------ Step             32 ----- CPU =     161.4724 (sec) -------------
TotEng   =    -25721.3590 KinEng   =      9907.0703 Temp     =       298.5106 
PotEng   =    -35628.4293 E_bond   =      3818.0568 E_angle  =      2249.6705 
E_dihed  =         2.0609 E_impro  =         1.1939 E_vdwl   =      5408.6667 
E_coul   =    155420.1153 E_long   =   -202528.1934 Press    =       287.1818
------------ Step             33 ----- CPU =     167.1713 (sec) -------------
TotEng   =    -25772.5951 KinEng   =      9907.0703 Temp     =       298.5106 
PotEng   =    -35679.6654 E_bond   =      3804.9126 E_angle  =      2251.9718 
E_dihed  =         2.0682 E_impro  =         1.0177 E_vdwl   =      5401.0177 
E_coul   =    155388.6384 E_long   =   -202529.2918 Press    =        18.7711
------------ Step             34 ----- CPU =     171.2929 (sec) -------------
TotEng   =    -25784.1730 KinEng   =      9907.0703 Temp     =       298.5106 
PotEng   =    -35691.2433 E_bond   =      3832.1636 E_angle  =      2245.5685 
E_dihed  =         2.0542 E_impro  =         0.8911 E_vdwl   =      5393.1820 
E_coul   =    155365.0661 E_long   =   -202530.1689 Press    =      -216.5692
------------ Step             35 ----- CPU =     175.1483 (sec) -------------
TotEng   =    -25779.0544 KinEng   =      9907.0703 Temp     =       298.5106 
PotEng   =    -35686.1247 E_bond   =      3867.6880 E_angle  =      2234.2208 
E_dihed  =         2.0340 E_impro  =         0.8264 E_vdwl   =      5385.6747 
E_coul   =    155354.8380 E_long   =   -202531.4066 Press    =      -292.0156
------------ Step             36 ----- CPU =     179.4273 (sec) -------------
TotEng   =    -25813.7570 KinEng   =      9907.0703 Temp     =       298.5106 
PotEng   =    -35720.8273 E_bond   =      3853.1064 E_angle  =      2218.8790 
E_dihed  =         2.0305 E_impro  =         0.8226 E_vdwl   =      5378.1637 
E_coul   =    155359.1232 E_long   =   -202532.9527 Press    =      -209.8348
------------ Step             37 ----- CPU =     183.4326 (sec) -------------
TotEng   =    -25869.1961 KinEng   =      9907.0703 Temp     =       298.5106 
PotEng   =    -35776.2664 E_bond   =      3807.4683 E_angle  =      2203.2789 
E_dihed  =         1.9927 E_impro  =         0.8625 E_vdwl   =      5371.6066 
E_coul   =    155373.5700 E_long   =   -202535.0455 Press    =       -25.6506
------------ Step             38 ----- CPU =     189.9546 (sec) -------------
TotEng   =    -25874.8679 KinEng   =      9907.0703 Temp     =       298.5106 
PotEng   =    -35781.9382 E_bond   =      3791.2678 E_angle  =      2193.5299 
E_dihed  =         1.9436 E_impro  =         0.9383 E_vdwl   =      5365.3876 
E_coul   =    155402.0607 E_long   =   -202537.0661 Press    =       232.9588
------------ Step             39 ----- CPU =     194.9732 (sec) -------------
TotEng   =    -25833.4339 KinEng   =      9907.0703 Temp     =       298.5106 
PotEng   =    -35740.5042 E_bond   =      3813.9328 E_angle  =      2187.3756 
E_dihed  =         1.8864 E_impro  =         1.0400 E_vdwl   =      5358.2960 
E_coul   =    155435.4614 E_long   =   -202538.4964 Press    =       398.1771
------------ Step             40 ----- CPU =     199.6824 (sec) -------------
TotEng   =    -25787.1960 KinEng   =      9907.0703 Temp     =       298.5106 
PotEng   =    -35694.2663 E_bond   =      3836.7016 E_angle  =      2187.1302 
E_dihed  =         1.8060 E_impro  =         1.1474 E_vdwl   =      5350.8401 
E_coul   =    155466.8818 E_long   =   -202538.7734 Press    =       429.6895
------------ Step             41 ----- CPU =     204.4147 (sec) -------------
TotEng   =    -25778.4075 KinEng   =      9907.0703 Temp     =       298.5106 
PotEng   =    -35685.4778 E_bond   =      3831.9910 E_angle  =      2185.0510 
E_dihed  =         1.7210 E_impro  =         1.2324 E_vdwl   =      5341.2226 
E_coul   =    155491.2683 E_long   =   -202537.9641 Press    =       283.2773
------------ Step             42 ----- CPU =     209.5978 (sec) -------------
TotEng   =    -25810.4599 KinEng   =      9907.0703 Temp     =       298.5106 
PotEng   =    -35717.5302 E_bond   =      3798.8628 E_angle  =      2178.7307 
E_dihed  =         1.6523 E_impro  =         1.3096 E_vdwl   =      5330.5460 
E_coul   =    155507.5587 E_long   =   -202536.1903 Press    =        17.7905
------------ Step             43 ----- CPU =     215.0171 (sec) -------------
TotEng   =    -25819.3604 KinEng   =      9907.0703 Temp     =       298.5106 
PotEng   =    -35726.4307 E_bond   =      3805.1270 E_angle  =      2169.8368 
E_dihed  =         1.6210 E_impro  =         1.3481 E_vdwl   =      5320.7141 
E_coul   =    155509.0437 E_long   =   -202534.1213 Press    =      -318.2424
------------ Step             44 ----- CPU =     219.5019 (sec) -------------
TotEng   =    -25793.7708 KinEng   =      9907.0703 Temp     =       298.5106 
PotEng   =    -35700.8411 E_bond   =      3859.0506 E_angle  =      2157.1900 
E_dihed  =         1.5999 E_impro  =         1.3638 E_vdwl   =      5311.6315 
E_coul   =    155500.0785 E_long   =   -202531.7554 Press    =      -621.3278
------------ Step             45 ----- CPU =     223.6889 (sec) -------------
TotEng   =    -25783.9390 KinEng   =      9907.0703 Temp     =       298.5106 
PotEng   =    -35691.0093 E_bond   =      3892.9287 E_angle  =      2140.7028 
E_dihed  =         1.6096 E_impro  =         1.3276 E_vdwl   =      5303.2263 
E_coul   =    155498.8866 E_long   =   -202529.6909 Press    =      -704.5394
------------ Step             46 ----- CPU =     227.3286 (sec) -------------
TotEng   =    -25815.0063 KinEng   =      9907.0703 Temp     =       298.5106 
PotEng   =    -35722.0766 E_bond   =      3875.5488 E_angle  =      2126.4433 
E_dihed  =         1.6334 E_impro  =         1.2438 E_vdwl   =      5296.0521 
E_coul   =    155505.4920 E_long   =   -202528.4901 Press    =      -565.9070
------------ Step             47 ----- CPU =     231.6553 (sec) -------------
TotEng   =    -25871.2425 KinEng   =      9907.0703 Temp     =       298.5106 
PotEng   =    -35778.3128 E_bond   =      3816.8150 E_angle  =      2120.6454 
E_dihed  =         1.6578 E_impro  =         1.1051 E_vdwl   =      5290.0757 
E_coul   =    155519.6902 E_long   =   -202528.3019 Press    =      -240.5047
------------ Step             48 ----- CPU =      236.776 (sec) -------------
TotEng   =    -25893.4271 KinEng   =      9907.0703 Temp     =       298.5106 
PotEng   =    -35800.4974 E_bond   =      3783.2315 E_angle  =      2128.7326 
E_dihed  =         1.6779 E_impro  =         0.9387 E_vdwl   =      5283.7971 
E_coul   =    155530.0108 E_long   =   -202528.8860 Press    =        51.3142
------------ Step             49 ----- CPU =     240.9736 (sec) -------------
TotEng   =    -25863.2428 KinEng   =      9907.0703 Temp     =       298.5106 
PotEng   =    -35770.3131 E_bond   =      3794.0822 E_angle  =      2154.3936 
E_dihed  =         1.6962 E_impro  =         0.7537 E_vdwl   =      5277.7261 
E_coul   =    155531.1306 E_long   =   -202530.0956 Press    =       185.3694
------------ Step             50 ----- CPU =     245.2891 (sec) -------------
TotEng   =    -25806.1934 KinEng   =      9907.0703 Temp     =       298.5106 
PotEng   =    -35713.2638 E_bond   =      3832.8170 E_angle  =      2189.6200 
E_dihed  =         1.7025 E_impro  =         0.5958 E_vdwl   =      5272.9079 
E_coul   =    155520.9885 E_long   =   -202531.8954 Press    =       137.9316
------------ Step             51 ----- CPU =     249.4346 (sec) -------------
TotEng   =    -25800.7892 KinEng   =      9907.0703 Temp     =       298.5106 
PotEng   =    -35707.8595 E_bond   =      3834.2454 E_angle  =      2220.7459 
E_dihed  =         1.6948 E_impro  =         0.4545 E_vdwl   =      5268.3633 
E_coul   =    155500.0571 E_long   =   -202533.4205 Press    =       -56.9041
------------ Step             52 ----- CPU =     253.9569 (sec) -------------
TotEng   =    -25825.3408 KinEng   =      9907.0703 Temp     =       298.5106 
PotEng   =    -35732.4111 E_bond   =      3825.9315 E_angle  =      2235.1919 
E_dihed  =         1.6839 E_impro  =         0.3295 E_vdwl   =      5264.9013 
E_coul   =    155473.9808 E_long   =   -202534.4301 Press    =      -358.7675
------------ Step             53 ----- CPU =     259.3875 (sec) -------------
TotEng   =    -25838.8880 KinEng   =      9907.0703 Temp     =       298.5106 
PotEng   =    -35745.9583 E_bond   =      3835.6899 E_angle  =      2233.9916 
E_dihed  =         1.6844 E_impro  =         0.2373 E_vdwl   =      5262.4839 
E_coul   =    155454.4386 E_long   =   -202534.4839 Press    =      -593.2047
------------ Step             54 ----- CPU =     263.7124 (sec) -------------
TotEng   =    -25825.9899 KinEng   =      9907.0703 Temp     =       298.5106 
PotEng   =    -35733.0602 E_bond   =      3872.4836 E_angle  =      2219.5750 
E_dihed  =         1.6978 E_impro  =         0.1815 E_vdwl   =      5261.1440 
E_coul   =    155446.0401 E_long   =   -202534.1821 Press    =      -690.9150
------------ Step             55 ----- CPU =     268.1363 (sec) -------------
TotEng   =    -25818.7115 KinEng   =      9907.0703 Temp     =       298.5106 
PotEng   =    -35725.7818 E_bond   =      3898.7303 E_angle  =      2197.7795 
E_dihed  =         1.7250 E_impro  =         0.1746 E_vdwl   =      5260.0212 
E_coul   =    155449.6364 E_long   =   -202533.8488 Press    =      -662.1071
------------ Step             56 ----- CPU =     272.7584 (sec) -------------
TotEng   =    -25847.8526 KinEng   =      9907.0703 Temp     =       298.5106 
PotEng   =    -35754.9229 E_bond   =      3867.3441 E_angle  =      2176.0435 
E_dihed  =         1.7517 E_impro  =         0.2104 E_vdwl   =      5258.7275 
E_coul   =    155475.0568 E_long   =   -202534.0568 Press    =      -432.4421
------------ Step             57 ----- CPU =      277.102 (sec) -------------
TotEng   =    -25892.5751 KinEng   =      9907.0703 Temp     =       298.5106 
PotEng   =    -35799.6454 E_bond   =      3804.7513 E_angle  =      2157.3359 
E_dihed  =         1.7819 E_impro  =         0.2867 E_vdwl   =      5257.7135 
E_coul   =    155514.0200 E_long   =   -202535.5347 Press    =      -126.3304
------------ Step             58 ----- CPU =     282.3486 (sec) -------------
TotEng   =    -25894.2807 KinEng   =      9907.0703 Temp     =       298.5106 
PotEng   =    -35801.3510 E_bond   =      3776.5776 E_angle  =      2147.0307 
E_dihed  =         1.8150 E_impro  =         0.4002 E_vdwl   =      5256.7833 
E_coul   =    155553.8668 E_long   =   -202537.8246 Press    =        86.0795
------------ Step             59 ----- CPU =     287.0693 (sec) -------------
TotEng   =    -25847.4345 KinEng   =      9907.0703 Temp     =       298.5106 
PotEng   =    -35754.5048 E_bond   =      3806.4158 E_angle  =      2134.7936 
E_dihed  =         1.8317 E_impro  =         0.5557 E_vdwl   =      5256.2043 
E_coul   =    155586.4616 E_long   =   -202540.7675 Press    =       163.0006
------------ Step             60 ----- CPU =     290.8447 (sec) -------------
TotEng   =    -25802.8906 KinEng   =      9907.0703 Temp     =       298.5106 
PotEng   =    -35709.9609 E_bond   =      3845.8649 E_angle  =      2121.8813 
E_dihed  =         1.8519 E_impro  =         0.7533 E_vdwl   =      5257.1963 
E_coul   =    155605.3866 E_long   =   -202542.8951 Press    =        79.6332
------------ Step             61 ----- CPU =     294.8921 (sec) -------------
TotEng   =    -25817.9087 KinEng   =      9907.0703 Temp     =       298.5106 
PotEng   =    -35724.9790 E_bond   =      3837.2744 E_angle  =      2107.3069 
E_dihed  =         1.8539 E_impro  =         0.9624 E_vdwl   =      5259.5022 
E_coul   =    155612.1466 E_long   =   -202544.0254 Press    =       -71.4311
------------ Step             62 ----- CPU =     299.3859 (sec) -------------
TotEng   =    -25862.8232 KinEng   =      9907.0703 Temp     =       298.5106 
PotEng   =    -35769.8935 E_bond   =      3810.4557 E_angle  =      2092.3346 
E_dihed  =         1.8444 E_impro  =         1.1862 E_vdwl   =      5263.7904 
E_coul   =    155604.5587 E_long   =   -202544.0634 Press    =      -282.8045
------------ Step             63 ----- CPU =     304.7627 (sec) -------------
TotEng   =    -25870.4801 KinEng   =      9907.0703 Temp     =       298.5106 
PotEng   =    -35777.5504 E_bond   =      3821.8054 E_angle  =      2080.9336 
E_dihed  =         1.8051 E_impro  =         1.4158 E_vdwl   =      5268.8692 
E_coul   =    155590.9941 E_long   =   -202543.3736 Press    =      -459.8686
------------ Step             64 ----- CPU =     309.0611 (sec) -------------
TotEng   =    -25822.8031 KinEng   =      9907.0703 Temp     =       298.5106 
PotEng   =    -35729.8734 E_bond   =      3874.3031 E_angle  =      2076.3284 
E_dihed  =         1.7706 E_impro  =         1.6362 E_vdwl   =      5273.4523 
E_coul   =    155584.4451 E_long   =   -202541.8092 Press    =      -516.6242
------------ Step             65 ----- CPU =     313.2529 (sec) -------------
TotEng   =    -25783.2284 KinEng   =      9907.0703 Temp     =       298.5106 
PotEng   =    -35690.2987 E_bond   =      3906.2435 E_angle  =      2078.0085 
E_dihed  =         1.7325 E_impro  =         1.8238 E_vdwl   =      5277.6041 
E_coul   =    155584.7854 E_long   =   -202540.4964 Press    =      -464.7434
------------ Step             66 ----- CPU =     317.1211 (sec) -------------
TotEng   =    -25800.7904 KinEng   =      9907.0703 Temp     =       298.5106 
PotEng   =    -35707.8607 E_bond   =      3864.5159 E_angle  =      2093.5348 
E_dihed  =         1.6908 E_impro  =         1.9206 E_vdwl   =      5281.0940 
E_coul   =    155589.1365 E_long   =   -202539.7533 Press    =      -295.3646
------------ Step             67 ----- CPU =     321.1984 (sec) -------------
TotEng   =    -25848.1106 KinEng   =      9907.0703 Temp     =       298.5106 
PotEng   =    -35755.1809 E_bond   =      3785.3854 E_angle  =      2119.4731 
E_dihed  =         1.6393 E_impro  =         1.9312 E_vdwl   =      5282.5734 
E_coul   =    155594.0095 E_long   =   -202540.1927 Press    =      -106.3716
------------ Step             68 ----- CPU =     326.7825 (sec) -------------
TotEng   =    -25844.7469 KinEng   =      9907.0703 Temp     =       298.5106 
PotEng   =    -35751.8172 E_bond   =      3764.3355 E_angle  =      2144.7130 
E_dihed  =         1.6155 E_impro  =         1.9343 E_vdwl   =      5283.6104 
E_coul   =    155593.8196 E_long   =   -202541.8455 Press    =        15.2732
------------ Step             69 ----- CPU =     331.2854 (sec) -------------
TotEng   =    -25773.8521 KinEng   =      9907.0703 Temp     =       298.5106 
PotEng   =    -35680.9224 E_bond   =      3814.5795 E_angle  =      2168.7540 
E_dihed  =         1.5952 E_impro  =         1.9218 E_vdwl   =      5284.6033 
E_coul   =    155591.2254 E_long   =   -202543.6017 Press    =       108.7102
------------ Step             70 ----- CPU =     335.2727 (sec) -------------
TotEng   =    -25725.0660 KinEng   =      9907.0703 Temp     =       298.5106 
PotEng   =    -35632.1363 E_bond   =      3861.4495 E_angle  =      2186.7348 
E_dihed  =         1.5874 E_impro  =         1.9097 E_vdwl   =      5286.3574 
E_coul   =    155574.5876 E_long   =   -202544.7627 Press    =        51.0066
------------ Step             71 ----- CPU =     339.0157 (sec) -------------
TotEng   =    -25756.2998 KinEng   =      9907.0703 Temp     =       298.5106 
PotEng   =    -35663.3701 E_bond   =      3842.7222 E_angle  =      2192.3759 
E_dihed  =         1.6035 E_impro  =         1.8919 E_vdwl   =      5288.2335 
E_coul   =    155554.7422 E_long   =   -202544.9393 Press    =       -48.3679
------------ Step             72 ----- CPU =     343.0914 (sec) -------------
TotEng   =    -25817.4123 KinEng   =      9907.0703 Temp     =       298.5106 
PotEng   =    -35724.4826 E_bond   =      3798.0473 E_angle  =      2193.4906 
E_dihed  =         1.6330 E_impro  =         1.8664 E_vdwl   =      5290.5635 
E_coul   =    155534.0178 E_long   =   -202544.1012 Press    =      -222.5245
------------ Step             73 ----- CPU =     348.6132 (sec) -------------
TotEng   =    -25811.5532 KinEng   =      9907.0703 Temp     =       298.5106 
PotEng   =    -35718.6235 E_bond   =      3811.5026 E_angle  =      2186.4128 
E_dihed  =         1.6702 E_impro  =         1.8152 E_vdwl   =      5292.7181 
E_coul   =    155529.8914 E_long   =   -202542.6339 Press    =      -340.0944
------------ Step             74 ----- CPU =      353.004 (sec) -------------
TotEng   =    -25768.7245 KinEng   =      9907.0703 Temp     =       298.5106 
PotEng   =    -35675.7948 E_bond   =      3849.5464 E_angle  =      2175.7357 
E_dihed  =         1.7046 E_impro  =         1.7008 E_vdwl   =      5292.7815 
E_coul   =    155544.2900 E_long   =   -202541.5539 Press    =      -363.9231
------------ Step             75 ----- CPU =     357.2349 (sec) -------------
TotEng   =    -25744.3951 KinEng   =      9907.0703 Temp     =       298.5106 
PotEng   =    -35651.4654 E_bond   =      3855.3958 E_angle  =      2167.2971 
E_dihed  =         1.7558 E_impro  =         1.5736 E_vdwl   =      5291.4335 
E_coul   =    155572.4990 E_long   =   -202541.4202 Press    =      -257.1032
------------ Step             76 ----- CPU =     361.7136 (sec) -------------
TotEng   =    -25774.7312 KinEng   =      9907.0703 Temp     =       298.5106 
PotEng   =    -35681.8015 E_bond   =      3803.1094 E_angle  =      2160.4164 
E_dihed  =         1.8351 E_impro  =         1.4477 E_vdwl   =      5288.3154 
E_coul   =    155605.5382 E_long   =   -202542.4637 Press    =       -86.5767
------------ Step             77 ----- CPU =     366.0141 (sec) -------------
TotEng   =    -25808.3131 KinEng   =      9907.0703 Temp     =       298.5106 
PotEng   =    -35715.3834 E_bond   =      3757.9288 E_angle  =      2154.2811 
E_dihed  =         1.9277 E_impro  =         1.2932 E_vdwl   =      5285.2373 
E_coul   =    155628.2102 E_long   =   -202544.2617 Press    =        18.1105
------------ Step             78 ----- CPU =     370.8133 (sec) -------------
TotEng   =    -25797.9862 KinEng   =      9907.0703 Temp     =       298.5106 
PotEng   =    -35705.0565 E_bond   =      3772.1778 E_angle  =      2143.8431 
E_dihed  =         2.0320 E_impro  =         1.1251 E_vdwl   =      5283.0227 
E_coul   =    155639.0182 E_long   =   -202546.2755 Press    =        10.7226
------------ Step             79 ----- CPU =     375.0426 (sec) -------------
TotEng   =    -25757.3609 KinEng   =      9907.0703 Temp     =       298.5106 
PotEng   =    -35664.4312 E_bond   =      3828.6398 E_angle  =      2129.4560 
E_dihed  =         2.1510 E_impro  =         0.9994 E_vdwl   =      5283.2252 
E_coul   =    155638.4722 E_long   =   -202547.3748 Press    =       -50.3684
------------ Step             80 ----- CPU =      379.223 (sec) -------------
TotEng   =    -25746.2238 KinEng   =      9907.0703 Temp     =       298.5106 
PotEng   =    -35653.2941 E_bond   =      3858.9939 E_angle  =      2108.1193 
E_dihed  =         2.2646 E_impro  =         0.9049 E_vdwl   =      5284.0585 
E_coul   =    155639.1502 E_long   =   -202546.7857 Press    =       -95.7451
------------ Step             81 ----- CPU =     383.5414 (sec) -------------
TotEng   =    -25795.2808 KinEng   =      9907.0703 Temp     =       298.5106 
PotEng   =    -35702.3511 E_bond   =      3832.7071 E_angle  =      2085.2520 
E_dihed  =         2.3610 E_impro  =         0.8565 E_vdwl   =      5284.8432 
E_coul   =    155636.6951 E_long   =   -202545.0660 Press    =      -168.5088
------------ Step             82 ----- CPU =     388.4947 (sec) -------------
TotEng   =    -25865.4774 KinEng   =      9907.0703 Temp     =       298.5106 
PotEng   =    -35772.5477 E_bond   =      3778.6894 E_angle  =      2070.6966 
E_dihed  =         2.4173 E_impro  =         0.8339 E_vdwl   =      5285.2207 
E_coul   =    155632.2872 E_long   =   -202542.6927 Press    =      -229.1813
------------ Step             83 ----- CPU =     393.7049 (sec) -------------
TotEng   =    -25861.5318 KinEng   =      9907.0703 Temp     =       298.5106 
PotEng   =    -35768.6021 E_bond   =      3779.5743 E_angle  =      2068.6144 
E_dihed  =         2.4562 E_impro  =         0.8373 E_vdwl   =      5284.4809 
E_coul   =    155635.6729 E_long   =   -202540.2381 Press    =      -233.0255
------------ Step             84 ----- CPU =     397.8889 (sec) -------------
TotEng   =    -25778.9177 KinEng   =      9907.0703 Temp     =       298.5106 
PotEng   =    -35685.9880 E_bond   =      3842.4922 E_angle  =      2083.0841 
E_dihed  =         2.5112 E_impro  =         0.8514 E_vdwl   =      5284.1432 
E_coul   =    155639.0839 E_long   =   -202538.1539 Press    =      -228.0240
------------ Step             85 ----- CPU =     402.2136 (sec) -------------
TotEng   =    -25714.2432 KinEng   =      9907.0703 Temp     =       298.5106 
PotEng   =    -35621.3135 E_bond   =      3872.3129 E_angle  =      2116.0118 
E_dihed  =         2.5947 E_impro  =         0.8858 E_vdwl   =      5284.3451 
E_coul   =    155639.2014 E_long   =   -202536.6652 Press    =      -204.6601
------------ Step             86 ----- CPU =     406.6473 (sec) -------------
TotEng   =    -25726.3432 KinEng   =      9907.0703 Temp     =       298.5106 
PotEng   =    -35633.4135 E_bond   =      3815.9692 E_angle  =      2153.3755 
E_dihed  =         2.6798 E_impro  =         0.9138 E_vdwl   =      5284.0482 
E_coul   =    155644.8543 E_long   =   -202535.2542 Press    =       -93.9209
------------ Step             87 ----- CPU =     410.8557 (sec) -------------
TotEng   =    -25759.4401 KinEng   =      9907.0703 Temp     =       298.5106 
PotEng   =    -35666.5104 E_bond   =      3747.6218 E_angle  =      2183.9396 
E_dihed  =         2.7492 E_impro  =         0.9028 E_vdwl   =      5282.4599 
E_coul   =    155650.0998 E_long   =   -202534.2835 Press    =        45.3275
------------ Step             88 ----- CPU =     415.9741 (sec) -------------
TotEng   =    -25728.3657 KinEng   =      9907.0703 Temp     =       298.5106 
PotEng   =    -35635.4360 E_bond   =      3759.6010 E_angle  =      2202.5420 
E_dihed  =         2.8382 E_impro  =         0.8720 E_vdwl   =      5281.6972 
E_coul   =    155650.1353 E_long   =   -202533.1217 Press    =       160.5193
------------ Step             89 ----- CPU =     420.0148 (sec) -------------
TotEng   =    -25665.2206 KinEng   =      9907.0703 Temp     =       298.5106 
PotEng   =    -35572.2909 E_bond   =      3826.1165 E_angle  =      2205.9240 
E_dihed  =         2.9129 E_impro  =         0.8070 E_vdwl   =      5283.3569 
E_coul   =    155640.7899 E_long   =   -202532.1980 Press    =       186.6648
------------ Step             90 ----- CPU =     424.2788 (sec) -------------
TotEng   =    -25663.4785 KinEng   =      9907.0703 Temp     =       298.5106 
PotEng   =    -35570.5488 E_bond   =      3843.7224 E_angle  =      2195.6549 
E_dihed  =         2.9698 E_impro  =         0.7135 E_vdwl   =      5286.6238 
E_coul   =    155630.9561 E_long   =   -202531.1892 Press    =       221.7616
------------ Step             91 ----- CPU =     428.3408 (sec) -------------
TotEng   =    -25736.0572 KinEng   =      9907.0703 Temp     =       298.5106 
PotEng   =    -35643.1275 E_bond   =      3798.3267 E_angle  =      2176.4994 
E_dihed  =         3.0315 E_impro  =         0.6047 E_vdwl   =      5290.3047 
E_coul   =    155618.5461 E_long   =   -202530.4405 Press    =       134.6492
------------ Step             92 ----- CPU =     432.5883 (sec) -------------
TotEng   =    -25794.3097 KinEng   =      9907.0703 Temp     =       298.5106 
PotEng   =    -35701.3800 E_bond   =      3766.3451 E_angle  =      2161.2891 
E_dihed  =         3.0706 E_impro  =         0.4765 E_vdwl   =      5293.9973 
E_coul   =    155603.6177 E_long   =   -202530.1764 Press    =       -50.9170
------------ Step             93 ----- CPU =     438.0041 (sec) -------------
TotEng   =    -25768.7967 KinEng   =      9907.0703 Temp     =       298.5106 
PotEng   =    -35675.8670 E_bond   =      3810.5104 E_angle  =      2150.7649 
E_dihed  =         3.1091 E_impro  =         0.3572 E_vdwl   =      5297.5164 
E_coul   =    155592.0888 E_long   =   -202530.2138 Press    =      -251.1042
------------ Step             94 ----- CPU =     442.2261 (sec) -------------
TotEng   =    -25704.6149 KinEng   =      9907.0703 Temp     =       298.5106 
PotEng   =    -35611.6852 E_bond   =      3873.1920 E_angle  =      2146.8785 
E_dihed  =         3.1420 E_impro  =         0.2501 E_vdwl   =      5299.4384 
E_coul   =    155596.4599 E_long   =   -202531.0462 Press    =      -348.0252
------------ Step             95 ----- CPU =      446.212 (sec) -------------
TotEng   =    -25697.5668 KinEng   =      9907.0703 Temp     =       298.5106 
PotEng   =    -35604.6371 E_bond   =      3870.8275 E_angle  =      2145.0036 
E_dihed  =         3.1623 E_impro  =         0.1598 E_vdwl   =      5299.7526 
E_coul   =    155608.8203 E_long   =   -202532.3632 Press    =      -372.1937
------------ Step             96 ----- CPU =      452.106 (sec) -------------
TotEng   =    -25747.9590 KinEng   =      9907.0703 Temp     =       298.5106 
PotEng   =    -35655.0293 E_bond   =      3805.4542 E_angle  =      2139.8017 
E_dihed  =         3.1868 E_impro  =         0.1183 E_vdwl   =      5299.0761 
E_coul   =    155631.2325 E_long   =   -202533.8989 Press    =      -203.6020
------------ Step             97 ----- CPU =     456.2682 (sec) -------------
TotEng   =    -25782.1567 KinEng   =      9907.0703 Temp     =       298.5106 
PotEng   =    -35689.2270 E_bond   =      3762.7633 E_angle  =      2128.9783 
E_dihed  =         3.2022 E_impro  =         0.1517 E_vdwl   =      5299.0265 
E_coul   =    155652.2590 E_long   =   -202535.6082 Press    =        43.5711
------------ Step             98 ----- CPU =     461.7388 (sec) -------------
TotEng   =    -25780.7289 KinEng   =      9907.0703 Temp     =       298.5106 
PotEng   =    -35687.7992 E_bond   =      3775.0784 E_angle  =      2110.0898 
E_dihed  =         3.2169 E_impro  =         0.2757 E_vdwl   =      5300.7849 
E_coul   =    155660.3564 E_long   =   -202537.6013 Press    =       267.1492
------------ Step             99 ----- CPU =     465.8706 (sec) -------------
TotEng   =    -25770.7438 KinEng   =      9907.0703 Temp     =       298.5106 
PotEng   =    -35677.8141 E_bond   =      3814.4778 E_angle  =      2090.3204 
E_dihed  =         3.2377 E_impro  =         0.4540 E_vdwl   =      5304.5668 
E_coul   =    155648.6100 E_long   =   -202539.4809 Press    =       365.8244
------------ Step            100 ----- CPU =     469.9735 (sec) -------------
TotEng   =    -25801.5939 KinEng   =      9907.0703 Temp     =       298.5106 
PotEng   =    -35708.6642 E_bond   =      3822.1437 E_angle  =      2075.7770 
E_dihed  =         3.2778 E_impro  =         0.6655 E_vdwl   =      5309.1352 
E_coul   =    155621.0264 E_long   =   -202540.6898 Press    =       316.7088
------------ Step            101 ----- CPU =     473.8263 (sec) -------------
TotEng   =    -25857.4975 KinEng   =      9907.0703 Temp     =       298.5106 
PotEng   =    -35764.5678 E_bond   =      3805.4382 E_angle  =      2070.9966 
E_dihed  =         3.3189 E_impro  =         0.9190 E_vdwl   =      5313.2021 
E_coul   =    155582.8677 E_long   =   -202541.3103 Press    =       131.6276
------------ Step            102 ----- CPU =     478.0863 (sec) -------------
TotEng   =    -25879.5329 KinEng   =      9907.0703 Temp     =       298.5106 
PotEng   =    -35786.6032 E_bond   =      3811.8227 E_angle  =      2077.0670 
E_dihed  =         3.3612 E_impro  =         1.1206 E_vdwl   =      5315.8819 
E_coul   =    155545.2062 E_long   =   -202541.0628 Press    =      -120.9526
------------ Step            103 ----- CPU =     483.4297 (sec) -------------
TotEng   =    -25857.1964 KinEng   =      9907.0703 Temp     =       298.5106 
PotEng   =    -35764.2667 E_bond   =      3852.4376 E_angle  =      2096.8356 
E_dihed  =         3.3857 E_impro  =         1.2814 E_vdwl   =      5316.4961 
E_coul   =    155505.6964 E_long   =   -202540.3995 Press    =      -467.5722
------------ Step            104 ----- CPU =     487.7933 (sec) -------------
TotEng   =    -25812.2882 KinEng   =      9907.0703 Temp     =       298.5106 
PotEng   =    -35719.3585 E_bond   =      3896.1467 E_angle  =      2122.0362 
E_dihed  =         3.3997 E_impro  =         1.3882 E_vdwl   =      5316.9217 
E_coul   =    155480.2935 E_long   =   -202539.5445 Press    =      -709.3991
------------ Step            105 ----- CPU =     492.0788 (sec) -------------
TotEng   =    -25816.1394 KinEng   =      9907.0703 Temp     =       298.5106 
PotEng   =    -35723.2097 E_bond   =      3873.4475 E_angle  =      2145.3664 
E_dihed  =         3.3799 E_impro  =         1.4862 E_vdwl   =      5316.3794 
E_coul   =    155475.8754 E_long   =   -202539.1445 Press    =      -697.6509
------------ Step            106 ----- CPU =     496.0934 (sec) -------------
TotEng   =    -25847.4514 KinEng   =      9907.0703 Temp     =       298.5106 
PotEng   =    -35754.5217 E_bond   =      3810.5674 E_angle  =      2162.0732 
E_dihed  =         3.3094 E_impro  =         1.5257 E_vdwl   =      5314.8050 
E_coul   =    155492.5217 E_long   =   -202539.3241 Press    =      -423.4873
------------ Step            107 ----- CPU =     500.0933 (sec) -------------
TotEng   =    -25854.2460 KinEng   =      9907.0703 Temp     =       298.5106 
PotEng   =    -35761.3163 E_bond   =      3775.9893 E_angle  =      2170.6924 
E_dihed  =         3.1954 E_impro  =         1.4829 E_vdwl   =      5313.6083 
E_coul   =    155514.1402 E_long   =   -202540.4247 Press    =      -107.0217
------------ Step            108 ----- CPU =     505.3483 (sec) -------------
TotEng   =    -25831.9373 KinEng   =      9907.0703 Temp     =       298.5106 
PotEng   =    -35739.0076 E_bond   =      3780.3242 E_angle  =      2174.5675 
E_dihed  =         3.0867 E_impro  =         1.3886 E_vdwl   =      5313.6942 
E_coul   =    155529.9655 E_long   =   -202542.0342 Press    =       184.5227
------------ Step            109 ----- CPU =     509.5253 (sec) -------------
TotEng   =    -25819.4271 KinEng   =      9907.0703 Temp     =       298.5106 
PotEng   =    -35726.4974 E_bond   =      3796.5106 E_angle  =      2168.9813 
E_dihed  =         2.9680 E_impro  =         1.2341 E_vdwl   =      5314.2727 
E_coul   =    155532.8557 E_long   =   -202543.3199 Press    =       322.6790
------------ Step            110 ----- CPU =     513.7353 (sec) -------------
TotEng   =    -25843.7632 KinEng   =      9907.0703 Temp     =       298.5106 
PotEng   =    -35750.8335 E_bond   =      3787.0573 E_angle  =      2163.0914 
E_dihed  =         2.8211 E_impro  =         1.0249 E_vdwl   =      5315.5071 
E_coul   =    155523.7950 E_long   =   -202544.1304 Press    =       279.6147
------------ Step            111 ----- CPU =     517.4713 (sec) -------------
TotEng   =    -25874.5784 KinEng   =      9907.0703 Temp     =       298.5106 
PotEng   =    -35781.6487 E_bond   =      3775.5428 E_angle  =      2156.0018 
E_dihed  =         2.6777 E_impro  =         0.7938 E_vdwl   =      5316.8624 
E_coul   =    155510.5034 E_long   =   -202544.0306 Press    =        74.6169
------------ Step            112 ----- CPU =     521.8769 (sec) -------------
TotEng   =    -25851.0437 KinEng   =      9907.0703 Temp     =       298.5106 
PotEng   =    -35758.1140 E_bond   =      3812.7939 E_angle  =      2151.6012 
E_dihed  =         2.5019 E_impro  =         0.5797 E_vdwl   =      5319.0309 
E_coul   =    155498.9152 E_long   =   -202543.5368 Press    =      -221.5658
------------ Step            113 ----- CPU =     527.4376 (sec) -------------
TotEng   =    -25788.3721 KinEng   =      9907.0703 Temp     =       298.5106 
PotEng   =    -35695.4424 E_bond   =      3869.7200 E_angle  =      2149.8896 
E_dihed  =         2.3260 E_impro  =         0.3861 E_vdwl   =      5322.1723 
E_coul   =    155502.8021 E_long   =   -202542.7385 Press    =      -447.4617
------------ Step            114 ----- CPU =     531.2675 (sec) -------------
TotEng   =    -25757.3033 KinEng   =      9907.0703 Temp     =       298.5106 
PotEng   =    -35664.3736 E_bond   =      3880.9160 E_angle  =      2143.2176 
E_dihed  =         2.1788 E_impro  =         0.2421 E_vdwl   =      5324.5481 
E_coul   =    155526.6490 E_long   =   -202542.1252 Press    =      -520.0674
------------ Step            115 ----- CPU =     535.1832 (sec) -------------
TotEng   =    -25789.4287 KinEng   =      9907.0703 Temp     =       298.5106 
PotEng   =    -35696.4990 E_bond   =      3822.5664 E_angle  =      2128.0258 
E_dihed  =         2.0201 E_impro  =         0.1738 E_vdwl   =      5325.8509 
E_coul   =    155566.5325 E_long   =   -202541.6684 Press    =      -396.3183
------------ Step            116 ----- CPU =     539.3148 (sec) -------------
TotEng   =    -25830.4658 KinEng   =      9907.0703 Temp     =       298.5106 
PotEng   =    -35737.5361 E_bond   =      3756.6736 E_angle  =      2103.7961 
E_dihed  =         1.8609 E_impro  =         0.2034 E_vdwl   =      5325.8190 
E_coul   =    155615.7226 E_long   =   -202541.6116 Press    =      -133.7846
------------ Step            117 ----- CPU =     543.7208 (sec) -------------
TotEng   =    -25825.1589 KinEng   =      9907.0703 Temp     =       298.5106 
PotEng   =    -35732.2292 E_bond   =      3744.1170 E_angle  =      2075.3660 
E_dihed  =         1.7316 E_impro  =         0.3350 E_vdwl   =      5325.7097 
E_coul   =    155662.8914 E_long   =   -202542.3798 Press    =       190.9586
------------ Step            118 ----- CPU =     549.1972 (sec) -------------
TotEng   =    -25802.2834 KinEng   =      9907.0703 Temp     =       298.5106 
PotEng   =    -35709.3537 E_bond   =      3763.7721 E_angle  =      2051.5650 
E_dihed  =         1.6362 E_impro  =         0.5541 E_vdwl   =      5327.1593 
E_coul   =    155689.4966 E_long   =   -202543.5370 Press    =       445.5724
------------ Step            119 ----- CPU =     553.5511 (sec) -------------
TotEng   =    -25820.8149 KinEng   =      9907.0703 Temp     =       298.5106 
PotEng   =    -35727.8852 E_bond   =      3764.4178 E_angle  =      2038.3311 
E_dihed  =         1.5548 E_impro  =         0.7820 E_vdwl   =      5330.2509 
E_coul   =    155680.9774 E_long   =   -202544.1992 Press    =       491.7601
------------ Step            120 ----- CPU =     557.6075 (sec) -------------
TotEng   =    -25870.2443 KinEng   =      9907.0703 Temp     =       298.5106 
PotEng   =    -35777.3146 E_bond   =      3746.4113 E_angle  =      2040.7868 
E_dihed  =         1.4898 E_impro  =         0.9782 E_vdwl   =      5334.8726 
E_coul   =    155642.2187 E_long   =   -202544.0721 Press    =       317.2054
------------ Step            121 ----- CPU =     561.8759 (sec) -------------
TotEng   =    -25885.1076 KinEng   =      9907.0703 Temp     =       298.5106 
PotEng   =    -35792.1779 E_bond   =      3759.2279 E_angle  =      2057.0410 
E_dihed  =         1.4445 E_impro  =         1.1641 E_vdwl   =      5339.7042 
E_coul   =    155592.4690 E_long   =   -202543.2286 Press    =        18.2994
------------ Step            122 ----- CPU =     566.3525 (sec) -------------
TotEng   =    -25829.1820 KinEng   =      9907.0703 Temp     =       298.5106 
PotEng   =    -35736.2523 E_bond   =      3822.3012 E_angle  =      2091.3918 
E_dihed  =         1.4165 E_impro  =         1.3161 E_vdwl   =      5344.8381 
E_coul   =    155544.5987 E_long   =   -202542.1148 Press    =      -288.0081
------------ Step            123 ----- CPU =      571.793 (sec) -------------
TotEng   =    -25763.5124 KinEng   =      9907.0703 Temp     =       298.5106 
PotEng   =    -35670.5827 E_bond   =      3882.9921 E_angle  =      2129.1369 
E_dihed  =         1.4055 E_impro  =         1.3962 E_vdwl   =      5349.9061 
E_coul   =    155506.0549 E_long   =   -202541.4744 Press    =      -497.0425
------------ Step            124 ----- CPU =     575.7191 (sec) -------------
TotEng   =    -25775.8359 KinEng   =      9907.0703 Temp     =       298.5106 
PotEng   =    -35682.9062 E_bond   =      3858.0408 E_angle  =      2156.2558 
E_dihed  =         1.4051 E_impro  =         1.4458 E_vdwl   =      5353.6628 
E_coul   =    155487.7376 E_long   =   -202541.4540 Press    =      -500.3003
------------ Step            125 ----- CPU =     579.8013 (sec) -------------
TotEng   =    -25832.9800 KinEng   =      9907.0703 Temp     =       298.5106 
PotEng   =    -35740.0503 E_bond   =      3780.3627 E_angle  =      2176.4557 
E_dihed  =         1.4211 E_impro  =         1.4383 E_vdwl   =      5356.1110 
E_coul   =    155485.8603 E_long   =   -202541.6994 Press    =      -301.3064
------------ Step            126 ----- CPU =     583.7684 (sec) -------------
TotEng   =    -25855.9114 KinEng   =      9907.0703 Temp     =       298.5106 
PotEng   =    -35762.9817 E_bond   =      3731.8359 E_angle  =      2183.4743 
E_dihed  =         1.4565 E_impro  =         1.4313 E_vdwl   =      5357.8425 
E_coul   =    155503.0290 E_long   =   -202542.0512 Press    =        99.7769
------------ Step            127 ----- CPU =     588.1823 (sec) -------------
TotEng   =    -25837.7443 KinEng   =      9907.0703 Temp     =       298.5106 
PotEng   =    -35744.8146 E_bond   =      3731.4788 E_angle  =      2178.8813 
E_dihed  =         1.4909 E_impro  =         1.3543 E_vdwl   =      5359.2221 
E_coul   =    155525.3135 E_long   =   -202542.5555 Press    =       507.8224
------------ Step            128 ----- CPU =     593.1458 (sec) -------------
TotEng   =    -25828.5056 KinEng   =      9907.0703 Temp     =       298.5106 
PotEng   =    -35735.5759 E_bond   =      3742.3046 E_angle  =      2171.3636 
E_dihed  =         1.5207 E_impro  =         1.2311 E_vdwl   =      5362.5013 
E_coul   =    155527.8925 E_long   =   -202542.3896 Press    =       709.4797
------------ Step            129 ----- CPU =      597.707 (sec) -------------
TotEng   =    -25870.0689 KinEng   =      9907.0703 Temp     =       298.5106 
PotEng   =    -35777.1392 E_bond   =      3717.9052 E_angle  =      2166.5921 
E_dihed  =         1.5361 E_impro  =         1.0691 E_vdwl   =      5366.2626 
E_coul   =    155510.7429 E_long   =   -202541.2471 Press    =       730.2925
------------ Step            130 ----- CPU =     602.2711 (sec) -------------
TotEng   =    -25935.5542 KinEng   =      9907.0703 Temp     =       298.5106 
PotEng   =    -35842.6245 E_bond   =      3684.4655 E_angle  =      2163.2976 
E_dihed  =         1.5523 E_impro  =         0.8628 E_vdwl   =      5369.6665 
E_coul   =    155476.8567 E_long   =   -202539.3260 Press    =       520.5891
------------ Step            131 ----- CPU =     606.6165 (sec) -------------
TotEng   =    -25937.9116 KinEng   =      9907.0703 Temp     =       298.5106 
PotEng   =    -35844.9819 E_bond   =      3718.8206 E_angle  =      2166.1896 
E_dihed  =         1.5693 E_impro  =         0.6758 E_vdwl   =      5373.1761 
E_coul   =    155431.2018 E_long   =   -202536.6151 Press    =       124.6505
------------ Step            132 ----- CPU =     611.0596 (sec) -------------
TotEng   =    -25873.6917 KinEng   =      9907.0703 Temp     =       298.5106 
PotEng   =    -35780.7620 E_bond   =      3810.2495 E_angle  =      2170.3884 
E_dihed  =         1.5935 E_impro  =         0.5467 E_vdwl   =      5376.9644 
E_coul   =    155393.2442 E_long   =   -202533.7487 Press    =      -285.2454
------------ Step            133 ----- CPU =     617.5552 (sec) -------------
TotEng   =    -25840.1665 KinEng   =      9907.0703 Temp     =       298.5106 
PotEng   =    -35747.2368 E_bond   =      3860.6086 E_angle  =      2170.0301 
E_dihed  =         1.6127 E_impro  =         0.4594 E_vdwl   =      5379.2337 
E_coul   =    155372.3190 E_long   =   -202531.5003 Press    =      -528.4861
------------ Step            134 ----- CPU =     621.8273 (sec) -------------
TotEng   =    -25885.8171 KinEng   =      9907.0703 Temp     =       298.5106 
PotEng   =    -35792.8874 E_bond   =      3813.8673 E_angle  =      2161.3963 
E_dihed  =         1.6441 E_impro  =         0.4465 E_vdwl   =      5378.1914 
E_coul   =    155381.2190 E_long   =   -202529.6519 Press    =      -477.9371
------------ Step            135 ----- CPU =     625.8447 (sec) -------------
TotEng   =    -25955.8955 KinEng   =      9907.0703 Temp     =       298.5106 
PotEng   =    -35862.9658 E_bond   =      3737.0254 E_angle  =      2142.7884 
E_dihed  =         1.6612 E_impro  =         0.4669 E_vdwl   =      5375.6482 
E_coul   =    155407.8160 E_long   =   -202528.3719 Press    =      -256.4020
------------ Step            136 ----- CPU =     630.1938 (sec) -------------
TotEng   =    -25969.8351 KinEng   =      9907.0703 Temp     =       298.5106 
PotEng   =    -35876.9054 E_bond   =      3708.1803 E_angle  =      2121.4152 
E_dihed  =         1.6576 E_impro  =         0.5068 E_vdwl   =      5372.1668 
E_coul   =    155446.8823 E_long   =   -202527.7144 Press    =       107.8227
------------ Step            137 ----- CPU =     634.4278 (sec) -------------
TotEng   =    -25935.0600 KinEng   =      9907.0703 Temp     =       298.5106 
PotEng   =    -35842.1303 E_bond   =      3733.1757 E_angle  =      2100.9028 
E_dihed  =         1.6470 E_impro  =         0.5726 E_vdwl   =      5369.5473 
E_coul   =    155480.0223 E_long   =   -202527.9981 Press    =       428.3579
------------ Step            138 ----- CPU =     638.0072 (sec) -------------
TotEng   =    -25930.2619 KinEng   =      9907.0703 Temp     =       298.5106 
PotEng   =    -35837.3322 E_bond   =      3737.6762 E_angle  =      2088.6529 
E_dihed  =         1.6337 E_impro  =         0.6475 E_vdwl   =      5368.1021 
E_coul   =    155494.4748 E_long   =   -202528.5194 Press    =       597.8322
------------ Step            139 ----- CPU =       642.66 (sec) -------------
TotEng   =    -25975.7096 KinEng   =      9907.0703 Temp     =       298.5106 
PotEng   =    -35882.7799 E_bond   =      3708.9390 E_angle  =      2086.6998 
E_dihed  =         1.6518 E_impro  =         0.7388 E_vdwl   =      5366.9106 
E_coul   =    155480.9915 E_long   =   -202528.7114 Press    =       545.7899
------------ Step            140 ----- CPU =     646.8526 (sec) -------------
TotEng   =    -26002.8014 KinEng   =      9907.0703 Temp     =       298.5106 
PotEng   =    -35909.8717 E_bond   =      3705.8611 E_angle  =      2094.9954 
E_dihed  =         1.6837 E_impro  =         0.8268 E_vdwl   =      5364.9565 
E_coul   =    155450.2195 E_long   =   -202528.4147 Press    =       262.1011
------------ Step            141 ----- CPU =     651.0423 (sec) -------------
TotEng   =    -25981.8417 KinEng   =      9907.0703 Temp     =       298.5106 
PotEng   =    -35888.9120 E_bond   =      3744.6149 E_angle  =      2113.2720 
E_dihed  =         1.7292 E_impro  =         0.9061 E_vdwl   =      5362.8965 
E_coul   =    155415.7635 E_long   =   -202528.0942 Press    =      -130.7292
------------ Step            142 ----- CPU =     655.6971 (sec) -------------
TotEng   =    -25919.9695 KinEng   =      9907.0703 Temp     =       298.5106 
PotEng   =    -35827.0398 E_bond   =      3809.3677 E_angle  =      2132.0187 
E_dihed  =         1.7818 E_impro  =         0.9827 E_vdwl   =      5359.5433 
E_coul   =    155397.5679 E_long   =   -202528.3018 Press    =      -434.2960
------------ Step            143 ----- CPU =     661.1662 (sec) -------------
TotEng   =    -25895.1393 KinEng   =      9907.0703 Temp     =       298.5106 
PotEng   =    -35802.2096 E_bond   =      3829.1859 E_angle  =      2143.4672 
E_dihed  =         1.8473 E_impro  =         1.0512 E_vdwl   =      5354.2270 
E_coul   =    155396.8644 E_long   =   -202528.8526 Press    =      -547.2098
------------ Step            144 ----- CPU =     665.4558 (sec) -------------
TotEng   =    -25927.5858 KinEng   =      9907.0703 Temp     =       298.5106 
PotEng   =    -35834.6561 E_bond   =      3783.7308 E_angle  =      2144.7687 
E_dihed  =         1.9404 E_impro  =         1.0933 E_vdwl   =      5348.7357 
E_coul   =    155414.7525 E_long   =   -202529.6774 Press    =      -462.0534
------------ Step            145 ----- CPU =     669.6175 (sec) -------------
TotEng   =    -25966.9491 KinEng   =      9907.0703 Temp     =       298.5106 
PotEng   =    -35874.0194 E_bond   =      3726.1063 E_angle  =      2141.1418 
E_dihed  =         2.0565 E_impro  =         1.1399 E_vdwl   =      5344.2129 
E_coul   =    155441.7366 E_long   =   -202530.4133 Press    =      -213.5913
------------ Step            146 ----- CPU =     673.7567 (sec) -------------
TotEng   =    -25978.2926 KinEng   =      9907.0703 Temp     =       298.5106 
PotEng   =    -35885.3629 E_bond   =      3698.6114 E_angle  =      2132.2992 
E_dihed  =         2.2014 E_impro  =         1.2058 E_vdwl   =      5341.7936 
E_coul   =    155469.5577 E_long   =   -202531.0318 Press    =       117.6181
------------ Step            147 ----- CPU =     677.7334 (sec) -------------
TotEng   =    -25958.1609 KinEng   =      9907.0703 Temp     =       298.5106 
PotEng   =    -35865.2312 E_bond   =      3706.5590 E_angle  =      2128.5286 
E_dihed  =         2.3834 E_impro  =         1.2969 E_vdwl   =      5342.1825 
E_coul   =    155485.7399 E_long   =   -202531.9215 Press    =       424.3204
------------ Step            148 ----- CPU =     683.3928 (sec) -------------
TotEng   =    -25928.5111 KinEng   =      9907.0703 Temp     =       298.5106 
PotEng   =    -35835.5814 E_bond   =      3730.5932 E_angle  =      2130.2901 
E_dihed  =         2.5630 E_impro  =         1.3895 E_vdwl   =      5343.0350 
E_coul   =    155489.9768 E_long   =   -202533.4291 Press    =       603.8674
------------ Step            149 ----- CPU =     687.4396 (sec) -------------
TotEng   =    -25934.0005 KinEng   =      9907.0703 Temp     =       298.5106 
PotEng   =    -35841.0708 E_bond   =      3731.3223 E_angle  =      2142.0271 
E_dihed  =         2.6741 E_impro  =         1.4699 E_vdwl   =      5345.1308 
E_coul   =    155471.3131 E_long   =   -202535.0081 Press    =       566.2077
------------ Step            150 ----- CPU =     691.6852 (sec) -------------
TotEng   =    -25950.1399 KinEng   =      9907.0703 Temp     =       298.5106 
PotEng   =    -35857.2102 E_bond   =      3731.7046 E_angle  =      2152.4663 
E_dihed  =         2.7992 E_impro  =         1.5935 E_vdwl   =      5347.3595 
E_coul   =    155443.2275 E_long   =   -202536.3608 Press    =       334.9168
------------ Step            151 ----- CPU =     695.9009 (sec) -------------
TotEng   =    -25943.9907 KinEng   =      9907.0703 Temp     =       298.5106 
PotEng   =    -35851.0610 E_bond   =      3757.8674 E_angle  =      2154.0937 
E_dihed  =         2.8930 E_impro  =         1.7119 E_vdwl   =      5346.9662 
E_coul   =    155423.0368 E_long   =   -202537.6299 Press    =       -16.5020
------------ Step            152 ----- CPU =     699.9982 (sec) -------------
TotEng   =    -25912.1189 KinEng   =      9907.0703 Temp     =       298.5106 
PotEng   =    -35819.1892 E_bond   =      3813.4484 E_angle  =      2146.5517 
E_dihed  =         2.9314 E_impro  =         1.8296 E_vdwl   =      5346.5603 
E_coul   =    155408.5919 E_long   =   -202539.1025 Press    =      -373.7390
------------ Step            153 ----- CPU =     705.3288 (sec) -------------
TotEng   =    -25909.0562 KinEng   =      9907.0703 Temp     =       298.5106 
PotEng   =    -35816.1265 E_bond   =      3831.1422 E_angle  =      2128.9652 
E_dihed  =         2.9484 E_impro  =         1.9506 E_vdwl   =      5345.8623 
E_coul   =    155413.6790 E_long   =   -202540.6742 Press    =      -541.2049
------------ Step            154 ----- CPU =     709.4068 (sec) -------------
TotEng   =    -25948.8345 KinEng   =      9907.0703 Temp     =       298.5106 
PotEng   =    -35855.9048 E_bond   =      3786.6496 E_angle  =      2110.4300 
E_dihed  =         2.9170 E_impro  =         2.0406 E_vdwl   =      5346.2207 
E_coul   =    155437.8979 E_long   =   -202542.0605 Press    =      -429.7842
------------ Step            155 ----- CPU =     713.5085 (sec) -------------
TotEng   =    -25995.3959 KinEng   =      9907.0703 Temp     =       298.5106 
PotEng   =    -35902.4662 E_bond   =      3722.7459 E_angle  =      2093.9559 
E_dihed  =         2.8733 E_impro  =         2.0931 E_vdwl   =      5348.7402 
E_coul   =    155470.0534 E_long   =   -202542.9281 Press    =      -135.3039
------------ Step            156 ----- CPU =     717.6931 (sec) -------------
TotEng   =    -26003.5607 KinEng   =      9907.0703 Temp     =       298.5106 
PotEng   =    -35910.6310 E_bond   =      3691.8149 E_angle  =      2089.8289 
E_dihed  =         2.7900 E_impro  =         2.0783 E_vdwl   =      5352.6071 
E_coul   =    155494.1008 E_long   =   -202543.8510 Press    =       194.7175
------------ Step            157 ----- CPU =     721.7989 (sec) -------------
TotEng   =    -25966.3072 KinEng   =      9907.0703 Temp     =       298.5106 
PotEng   =    -35873.3775 E_bond   =      3706.1040 E_angle  =      2095.8616 
E_dihed  =         2.6432 E_impro  =         2.0276 E_vdwl   =      5358.9813 
E_coul   =    155506.2402 E_long   =   -202545.2355 Press    =       472.8114
------------ Step            158 ----- CPU =     727.4751 (sec) -------------
TotEng   =    -25934.7129 KinEng   =      9907.0703 Temp     =       298.5106 
PotEng   =    -35841.7832 E_bond   =      3728.9452 E_angle  =      2108.8080 
E_dihed  =         2.4446 E_impro  =         1.8977 E_vdwl   =      5366.8213 
E_coul   =    155496.4122 E_long   =   -202547.1122 Press    =       574.2272
------------ Step            159 ----- CPU =     731.8311 (sec) -------------
TotEng   =    -25934.2797 KinEng   =      9907.0703 Temp     =       298.5106 
PotEng   =    -35841.3500 E_bond   =      3738.2310 E_angle  =      2123.1255 
E_dihed  =         2.2307 E_impro  =         1.7188 E_vdwl   =      5374.7313 
E_coul   =    155467.8668 E_long   =   -202549.2540 Press    =       458.2153
------------ Step            160 ----- CPU =       736.26 (sec) -------------
TotEng   =    -25939.1642 KinEng   =      9907.0703 Temp     =       298.5106 
PotEng   =    -35846.2345 E_bond   =      3754.7099 E_angle  =      2129.8490 
E_dihed  =         2.0034 E_impro  =         1.4797 E_vdwl   =      5380.3412 
E_coul   =    155436.1393 E_long   =   -202550.7571 Press    =       185.7085
------------ Step            161 ----- CPU =     740.5192 (sec) -------------
TotEng   =    -25918.3198 KinEng   =      9907.0703 Temp     =       298.5106 
PotEng   =    -35825.3901 E_bond   =      3790.5490 E_angle  =      2129.3701 
E_dihed  =         1.8070 E_impro  =         1.2321 E_vdwl   =      5383.1431 
E_coul   =    155419.2400 E_long   =   -202550.7314 Press    =       -91.6204
------------ Step            162 ----- CPU =     745.1179 (sec) -------------
TotEng   =    -25908.4260 KinEng   =      9907.0703 Temp     =       298.5106 
PotEng   =    -35815.4963 E_bond   =      3805.6622 E_angle  =      2127.1239 
E_dihed  =         1.6431 E_impro  =         1.0024 E_vdwl   =      5384.7171 
E_coul   =    155413.3542 E_long   =   -202548.9991 Press    =      -313.7338
------------ Step            163 ----- CPU =     750.6128 (sec) -------------
TotEng   =    -25911.4474 KinEng   =      9907.0703 Temp     =       298.5106 
PotEng   =    -35818.5177 E_bond   =      3792.7745 E_angle  =      2121.8379 
E_dihed  =         1.5382 E_impro  =         0.8156 E_vdwl   =      5387.1415 
E_coul   =    155424.0013 E_long   =   -202546.6267 Press    =      -329.0842
------------ Step            164 ----- CPU =     754.6461 (sec) -------------
TotEng   =    -25923.7820 KinEng   =      9907.0703 Temp     =       298.5106 
PotEng   =    -35830.8523 E_bond   =      3765.9891 E_angle  =      2118.4789 
E_dihed  =         1.4930 E_impro  =         0.6555 E_vdwl   =      5390.8275 
E_coul   =    155435.9092 E_long   =   -202544.2055 Press    =      -254.1355
------------ Step            165 ----- CPU =     758.7976 (sec) -------------
TotEng   =    -25929.7778 KinEng   =      9907.0703 Temp     =       298.5106 
PotEng   =    -35836.8481 E_bond   =      3732.3404 E_angle  =      2123.2159 
E_dihed  =         1.4917 E_impro  =         0.5430 E_vdwl   =      5394.2534 
E_coul   =    155453.7002 E_long   =   -202542.3927 Press    =       -33.8276
------------ Step            166 ----- CPU =     763.0267 (sec) -------------
TotEng   =    -25897.1400 KinEng   =      9907.0703 Temp     =       298.5106 
PotEng   =    -35804.2103 E_bond   =      3729.5721 E_angle  =      2138.7372 
E_dihed  =         1.5343 E_impro  =         0.4921 E_vdwl   =      5398.0451 
E_coul   =    155468.9169 E_long   =   -202541.5080 Press    =       279.2550
------------ Step            167 ----- CPU =     767.2082 (sec) -------------
TotEng   =    -25854.1803 KinEng   =      9907.0703 Temp     =       298.5106 
PotEng   =    -35761.2506 E_bond   =      3745.4513 E_angle  =      2159.7009 
E_dihed  =         1.6085 E_impro  =         0.4730 E_vdwl   =      5402.3620 
E_coul   =    155470.3712 E_long   =   -202541.2173 Press    =       510.3781
------------ Step            168 ----- CPU =     772.7611 (sec) -------------
TotEng   =    -25836.6100 KinEng   =      9907.0703 Temp     =       298.5106 
PotEng   =    -35743.6803 E_bond   =      3744.8489 E_angle  =      2180.0280 
E_dihed  =         1.6873 E_impro  =         0.4704 E_vdwl   =      5408.0550 
E_coul   =    155462.1439 E_long   =   -202540.9137 Press    =       652.8210
------------ Step            169 ----- CPU =     776.8175 (sec) -------------
TotEng   =    -25835.1209 KinEng   =      9907.0703 Temp     =       298.5106 
PotEng   =    -35742.1912 E_bond   =      3750.3161 E_angle  =      2190.5629 
E_dihed  =         1.7693 E_impro  =         0.4700 E_vdwl   =      5413.7781 
E_coul   =    155440.9741 E_long   =   -202540.0616 Press    =       577.9802
------------ Step            170 ----- CPU =      781.056 (sec) -------------
TotEng   =    -25835.3552 KinEng   =      9907.0703 Temp     =       298.5106 
PotEng   =    -35742.4255 E_bond   =      3777.9148 E_angle  =      2185.4878 
E_dihed  =         1.8581 E_impro  =         0.4631 E_vdwl   =      5417.6018 
E_coul   =    155412.3043 E_long   =   -202538.0555 Press    =       330.6295
------------ Step            171 ----- CPU =      785.412 (sec) -------------
TotEng   =    -25851.2685 KinEng   =      9907.0703 Temp     =       298.5106 
PotEng   =    -35758.3388 E_bond   =      3803.3017 E_angle  =      2168.0748 
E_dihed  =         1.9354 E_impro  =         0.4424 E_vdwl   =      5419.2271 
E_coul   =    155383.6293 E_long   =   -202534.9494 Press    =        -4.5968
------------ Step            172 ----- CPU =     789.3782 (sec) -------------
TotEng   =    -25884.5339 KinEng   =      9907.0703 Temp     =       298.5106 
PotEng   =    -35791.6042 E_bond   =      3811.5901 E_angle  =      2142.0734 
E_dihed  =         2.0169 E_impro  =         0.4233 E_vdwl   =      5419.6715 
E_coul   =    155364.8742 E_long   =   -202532.2535 Press    =      -276.0182
------------ Step            173 ----- CPU =     795.8348 (sec) -------------
TotEng   =    -25897.9643 KinEng   =      9907.0703 Temp     =       298.5106 
PotEng   =    -35805.0346 E_bond   =      3818.8214 E_angle  =      2118.4936 
E_dihed  =         2.0981 E_impro  =         0.4086 E_vdwl   =      5419.5325 
E_coul   =    155365.7607 E_long   =   -202530.1496 Press    =      -412.7636
------------ Step            174 ----- CPU =     800.4127 (sec) -------------
TotEng   =    -25911.6084 KinEng   =      9907.0703 Temp     =       298.5106 
PotEng   =    -35818.6787 E_bond   =      3797.5556 E_angle  =      2102.6622 
E_dihed  =         2.1968 E_impro  =         0.3868 E_vdwl   =      5419.2145 
E_coul   =    155388.0061 E_long   =   -202528.7006 Press    =      -323.4817
------------ Step            175 ----- CPU =     804.6544 (sec) -------------
TotEng   =    -25898.8881 KinEng   =      9907.0703 Temp     =       298.5106 
PotEng   =    -35805.9584 E_bond   =      3774.4927 E_angle  =      2103.4884 
E_dihed  =         2.2865 E_impro  =         0.3651 E_vdwl   =      5418.2991 
E_coul   =    155423.2478 E_long   =   -202528.1380 Press    =       -45.4949
------------ Step            176 ----- CPU =     809.0334 (sec) -------------
TotEng   =    -25881.1492 KinEng   =      9907.0703 Temp     =       298.5106 
PotEng   =    -35788.2195 E_bond   =      3738.9527 E_angle  =      2121.8944 
E_dihed  =         2.3592 E_impro  =         0.3455 E_vdwl   =      5417.4626 
E_coul   =    155458.8504 E_long   =   -202528.0843 Press    =       350.2116
------------ Step            177 ----- CPU =     813.7667 (sec) -------------
TotEng   =    -25875.8448 KinEng   =      9907.0703 Temp     =       298.5106 
PotEng   =    -35782.9151 E_bond   =      3699.7889 E_angle  =      2144.8335 
E_dihed  =         2.4575 E_impro  =         0.3597 E_vdwl   =      5417.5069 
E_coul   =    155481.1290 E_long   =   -202528.9906 Press    =       708.3484
------------ Step            178 ----- CPU =     819.8931 (sec) -------------
TotEng   =    -25871.6185 KinEng   =      9907.0703 Temp     =       298.5106 
PotEng   =    -35778.6888 E_bond   =      3691.7986 E_angle  =      2165.0512 
E_dihed  =         2.5663 E_impro  =         0.3809 E_vdwl   =      5419.2205 
E_coul   =    155472.6024 E_long   =   -202530.3086 Press    =       857.5006
------------ Step            179 ----- CPU =      824.618 (sec) -------------
TotEng   =    -25862.7354 KinEng   =      9907.0703 Temp     =       298.5106 
PotEng   =    -35769.8057 E_bond   =      3729.4994 E_angle  =      2170.9841 
E_dihed  =         2.6971 E_impro  =         0.4375 E_vdwl   =      5420.6818 
E_coul   =    155436.9396 E_long   =   -202531.0452 Press    =       682.9312
------------ Step            180 ----- CPU =     828.7889 (sec) -------------
TotEng   =    -25847.9278 KinEng   =      9907.0703 Temp     =       298.5106 
PotEng   =    -35754.9981 E_bond   =      3798.5616 E_angle  =      2162.8988 
E_dihed  =         2.8056 E_impro  =         0.4931 E_vdwl   =      5421.3139 
E_coul   =    155389.7682 E_long   =   -202530.8393 Press    =       289.1714
------------ Step            181 ----- CPU =     832.9649 (sec) -------------
TotEng   =    -25871.5467 KinEng   =      9907.0703 Temp     =       298.5106 
PotEng   =    -35778.6170 E_bond   =      3831.8067 E_angle  =      2145.5777 
E_dihed  =         2.8830 E_impro  =         0.5325 E_vdwl   =      5420.2805 
E_coul   =    155350.6872 E_long   =   -202530.3846 Press    =      -109.3161
------------ Step            182 ----- CPU =     838.2977 (sec) -------------
TotEng   =    -25929.0112 KinEng   =      9907.0703 Temp     =       298.5106 
PotEng   =    -35836.0815 E_bond   =      3816.1581 E_angle  =      2124.2426 
E_dihed  =         2.9581 E_impro  =         0.5719 E_vdwl   =      5418.1366 
E_coul   =    155332.6222 E_long   =   -202530.7710 Press    =      -378.1207
------------ Step            183 ----- CPU =     844.5051 (sec) -------------
TotEng   =    -25970.1629 KinEng   =      9907.0703 Temp     =       298.5106 
PotEng   =    -35877.2332 E_bond   =      3784.3150 E_angle  =      2114.8652 
E_dihed  =         3.0395 E_impro  =         0.6065 E_vdwl   =      5414.2164 
E_coul   =    155337.8155 E_long   =   -202532.0913 Press    =      -432.6991
------------ Step            184 ----- CPU =     848.6881 (sec) -------------
TotEng   =    -25956.7055 KinEng   =      9907.0703 Temp     =       298.5106 
PotEng   =    -35863.7759 E_bond   =      3775.7604 E_angle  =      2116.7139 
E_dihed  =         3.1439 E_impro  =         0.6352 E_vdwl   =      5410.1115 
E_coul   =    155363.8724 E_long   =   -202534.0133 Press    =      -258.8822
------------ Step            185 ----- CPU =     853.0098 (sec) -------------
TotEng   =    -25923.6162 KinEng   =      9907.0703 Temp     =       298.5106 
PotEng   =    -35830.6865 E_bond   =      3768.6128 E_angle  =      2128.2853 
E_dihed  =         3.2464 E_impro  =         0.6230 E_vdwl   =      5405.9763 
E_coul   =    155398.5182 E_long   =   -202535.9484 Press    =        60.8764
------------ Step            186 ----- CPU =     857.2827 (sec) -------------
TotEng   =    -25905.4976 KinEng   =      9907.0703 Temp     =       298.5106 
PotEng   =    -35812.5679 E_bond   =      3748.2759 E_angle  =      2143.9791 
E_dihed  =         3.3361 E_impro  =         0.5706 E_vdwl   =      5402.9369 
E_coul   =    155425.4991 E_long   =   -202537.1657 Press    =       373.1040
------------ Step            187 ----- CPU =     861.8138 (sec) -------------
TotEng   =    -25918.9100 KinEng   =      9907.0703 Temp     =       298.5106 
PotEng   =    -35825.9803 E_bond   =      3721.4918 E_angle  =      2153.4325 
E_dihed  =         3.4269 E_impro  =         0.5209 E_vdwl   =      5400.5648 
E_coul   =    155432.0022 E_long   =   -202537.4195 Press    =       549.9534
------------ Step            188 ----- CPU =       867.86 (sec) -------------
TotEng   =    -25935.0935 KinEng   =      9907.0703 Temp     =       298.5106 
PotEng   =    -35842.1638 E_bond   =      3721.5476 E_angle  =      2154.3515 
E_dihed  =         3.5346 E_impro  =         0.4737 E_vdwl   =      5399.6839 
E_coul   =    155415.0426 E_long   =   -202536.7976 Press    =       531.6667
------------ Step            189 ----- CPU =     872.3365 (sec) -------------
TotEng   =    -25927.8365 KinEng   =      9907.0703 Temp     =       298.5106 
PotEng   =    -35834.9068 E_bond   =      3768.6197 E_angle  =      2141.3521 
E_dihed  =         3.6081 E_impro  =         0.4009 E_vdwl   =      5399.6896 
E_coul   =    155386.7828 E_long   =   -202535.3601 Press    =       347.8924
------------ Step            190 ----- CPU =     876.6685 (sec) -------------
TotEng   =    -25930.7089 KinEng   =      9907.0703 Temp     =       298.5106 
PotEng   =    -35837.7792 E_bond   =      3813.8888 E_angle  =      2120.3712 
E_dihed  =         3.6763 E_impro  =         0.3343 E_vdwl   =      5399.7889 
E_coul   =    155358.2152 E_long   =   -202534.0541 Press    =        90.7566
------------ Step            191 ----- CPU =     881.0916 (sec) -------------
TotEng   =    -25962.1081 KinEng   =      9907.0703 Temp     =       298.5106 
PotEng   =    -35869.1784 E_bond   =      3821.0691 E_angle  =      2098.6978 
E_dihed  =         3.7022 E_impro  =         0.2871 E_vdwl   =      5398.5316 
E_coul   =    155342.2924 E_long   =   -202533.7586 Press    =      -164.3617
------------ Step            192 ----- CPU =     884.9837 (sec) -------------
TotEng   =    -26006.5966 KinEng   =      9907.0703 Temp     =       298.5106 
PotEng   =    -35913.6669 E_bond   =      3792.6669 E_angle  =      2084.0723 
E_dihed  =         3.6974 E_impro  =         0.2604 E_vdwl   =      5394.7342 
E_coul   =    155345.2853 E_long   =   -202534.3835 Press    =      -339.2524
------------ Step            193 ----- CPU =     890.9856 (sec) -------------
TotEng   =    -26036.0724 KinEng   =      9907.0703 Temp     =       298.5106 
PotEng   =    -35943.1427 E_bond   =      3751.3447 E_angle  =      2081.1523 
E_dihed  =         3.6709 E_impro  =         0.2637 E_vdwl   =      5390.4094 
E_coul   =    155365.4780 E_long   =   -202535.4617 Press    =      -345.0629
------------ Step            194 ----- CPU =     895.2911 (sec) -------------
TotEng   =    -26010.8330 KinEng   =      9907.0703 Temp     =       298.5106 
PotEng   =    -35917.9033 E_bond   =      3737.8402 E_angle  =      2091.9862 
E_dihed  =         3.6074 E_impro  =         0.3021 E_vdwl   =      5386.5436 
E_coul   =    155398.2814 E_long   =   -202536.4642 Press    =      -178.1960
------------ Step            195 ----- CPU =     900.1337 (sec) -------------
TotEng   =    -25959.1304 KinEng   =      9907.0703 Temp     =       298.5106 
[...]
E_coul   =    155782.8225 E_long   =   -202536.8358 Press    =      -984.8800
------------ Step           9947 ----- CPU =     45848.11 (sec) -------------
TotEng   =    -25711.5286 KinEng   =      9907.0703 Temp     =       298.5106 
PotEng   =    -35618.5989 E_bond   =      3865.6756 E_angle  =      2128.8018 
E_dihed  =         3.0670 E_impro  =         0.3429 E_vdwl   =      5153.4538 
E_coul   =    155765.2363 E_long   =   -202535.1762 Press    =     -1205.2261
------------ Step           9948 ----- CPU =     45855.86 (sec) -------------
TotEng   =    -25649.4206 KinEng   =      9907.0703 Temp     =       298.5106 
PotEng   =    -35556.4909 E_bond   =      3907.3295 E_angle  =      2141.1831 
E_dihed  =         3.0315 E_impro  =         0.3455 E_vdwl   =      5152.5337 
E_coul   =    155773.2794 E_long   =   -202534.1937 Press    =     -1125.5494
------------ Step           9949 ----- CPU =     45860.17 (sec) -------------
TotEng   =    -25676.6893 KinEng   =      9907.0703 Temp     =       298.5106 
PotEng   =    -35583.7596 E_bond   =      3839.8102 E_angle  =      2148.8891 
E_dihed  =         2.9653 E_impro  =         0.3738 E_vdwl   =      5149.8930 
E_coul   =    155808.6599 E_long   =   -202534.3508 Press    =      -762.6684
------------ Step           9950 ----- CPU =     45863.87 (sec) -------------
TotEng   =    -25741.6786 KinEng   =      9907.0703 Temp     =       298.5106 
PotEng   =    -35648.7489 E_bond   =      3725.2243 E_angle  =      2148.3654 
E_dihed  =         2.8867 E_impro  =         0.4343 E_vdwl   =      5144.3281 
E_coul   =    155865.8775 E_long   =   -202535.8651 Press    =      -237.2863
------------ Step           9951 ----- CPU =     45867.96 (sec) -------------
TotEng   =    -25756.3014 KinEng   =      9907.0703 Temp     =       298.5106 
PotEng   =    -35663.3717 E_bond   =      3673.3580 E_angle  =      2136.4785 
E_dihed  =         2.7718 E_impro  =         0.4761 E_vdwl   =      5137.5097 
E_coul   =    155924.1248 E_long   =   -202538.0906 Press    =       181.2291
------------ Step           9952 ----- CPU =     45871.87 (sec) -------------
TotEng   =    -25705.7393 KinEng   =      9907.0703 Temp     =       298.5106 
PotEng   =    -35612.8096 E_bond   =      3708.9443 E_angle  =      2116.2253 
E_dihed  =         2.6527 E_impro  =         0.5065 E_vdwl   =      5129.8113 
E_coul   =    155969.8270 E_long   =   -202540.7766 Press    =       389.0823
------------ Step           9953 ----- CPU =     45877.39 (sec) -------------
TotEng   =    -25672.9878 KinEng   =      9907.0703 Temp     =       298.5106 
PotEng   =    -35580.0581 E_bond   =      3758.1684 E_angle  =      2094.6212 
E_dihed  =         2.5283 E_impro  =         0.5128 E_vdwl   =      5123.3509 
E_coul   =    155983.8748 E_long   =   -202543.1143 Press    =       322.4151
------------ Step           9954 ----- CPU =     45881.63 (sec) -------------
TotEng   =    -25720.0424 KinEng   =      9907.0703 Temp     =       298.5106 
PotEng   =    -35627.1127 E_bond   =      3753.6400 E_angle  =      2079.0403 
E_dihed  =         2.4050 E_impro  =         0.4922 E_vdwl   =      5118.8017 
E_coul   =    155962.2264 E_long   =   -202543.7182 Press    =       -41.2635
------------ Step           9955 ----- CPU =     45885.93 (sec) -------------
TotEng   =    -25793.8268 KinEng   =      9907.0703 Temp     =       298.5106 
PotEng   =    -35700.8971 E_bond   =      3721.2754 E_angle  =      2074.9330 
E_dihed  =         2.2961 E_impro  =         0.4668 E_vdwl   =      5116.1232 
E_coul   =    155926.0785 E_long   =   -202542.0701 Press    =      -505.5884
------------ Step           9956 ----- CPU =     45889.84 (sec) -------------
TotEng   =    -25779.9649 KinEng   =      9907.0703 Temp     =       298.5106 
PotEng   =    -35687.0352 E_bond   =      3763.1417 E_angle  =      2081.4504 
E_dihed  =         2.1987 E_impro  =         0.4374 E_vdwl   =      5114.3908 
E_coul   =    155890.1665 E_long   =   -202538.8206 Press    =      -949.1509
------------ Step           9957 ----- CPU =     45894.12 (sec) -------------
TotEng   =    -25695.6199 KinEng   =      9907.0703 Temp     =       298.5106 
PotEng   =    -35602.6902 E_bond   =      3855.7696 E_angle  =      2096.4683 
E_dihed  =         2.0993 E_impro  =         0.4196 E_vdwl   =      5112.7246 
E_coul   =    155865.5953 E_long   =   -202535.7669 Press    =     -1192.4470
------------ Step           9958 ----- CPU =     45899.43 (sec) -------------
TotEng   =    -25637.8993 KinEng   =      9907.0703 Temp     =       298.5106 
PotEng   =    -35544.9696 E_bond   =      3903.4590 E_angle  =      2112.6151 
E_dihed  =         2.0047 E_impro  =         0.4273 E_vdwl   =      5109.2619 
E_coul   =    155861.2641 E_long   =   -202534.0016 Press    =     -1184.5556
------------ Step           9959 ----- CPU =     45903.34 (sec) -------------
TotEng   =    -25668.9451 KinEng   =      9907.0703 Temp     =       298.5106 
PotEng   =    -35576.0154 E_bond   =      3843.6374 E_angle  =      2129.4725 
E_dihed  =         1.9026 E_impro  =         0.4376 E_vdwl   =      5104.0858 
E_coul   =    155877.6880 E_long   =   -202533.2394 Press    =      -902.1909
------------ Step           9960 ----- CPU =     45907.22 (sec) -------------
TotEng   =    -25738.0489 KinEng   =      9907.0703 Temp     =       298.5106 
PotEng   =    -35645.1192 E_bond   =      3726.2868 E_angle  =      2144.4887 
E_dihed  =         1.8143 E_impro  =         0.4821 E_vdwl   =      5095.7383 
E_coul   =    155919.4054 E_long   =   -202533.3348 Press    =      -364.3380
------------ Step           9961 ----- CPU =     45911.25 (sec) -------------
TotEng   =    -25743.5107 KinEng   =      9907.0703 Temp     =       298.5106 
PotEng   =    -35650.5810 E_bond   =      3682.5971 E_angle  =      2158.6535 
E_dihed  =         1.7471 E_impro  =         0.5453 E_vdwl   =      5087.9953 
E_coul   =    155951.5213 E_long   =   -202533.6407 Press    =        73.1263
------------ Step           9962 ----- CPU =     45915.68 (sec) -------------
TotEng   =    -25699.6507 KinEng   =      9907.0703 Temp     =       298.5106 
PotEng   =    -35606.7210 E_bond   =      3721.5884 E_angle  =      2160.9304 
E_dihed  =         1.7031 E_impro  =         0.6385 E_vdwl   =      5081.9903 
E_coul   =    155960.4236 E_long   =   -202533.9953 Press    =       199.0569
------------ Step           9963 ----- CPU =     45921.84 (sec) -------------
TotEng   =    -25683.5429 KinEng   =      9907.0703 Temp     =       298.5106 
PotEng   =    -35590.6132 E_bond   =      3761.5289 E_angle  =      2156.9599 
E_dihed  =         1.6894 E_impro  =         0.7471 E_vdwl   =      5077.0217 
E_coul   =    155946.2184 E_long   =   -202534.7786 Press    =        59.1781
------------ Step           9964 ----- CPU =     45926.03 (sec) -------------
TotEng   =    -25739.4267 KinEng   =      9907.0703 Temp     =       298.5106 
PotEng   =    -35646.4970 E_bond   =      3748.0954 E_angle  =      2147.3713 
E_dihed  =         1.7108 E_impro  =         0.8526 E_vdwl   =      5073.4734 
E_coul   =    155917.5055 E_long   =   -202535.5059 Press    =      -206.8899
------------ Step           9965 ----- CPU =     45930.16 (sec) -------------
TotEng   =    -25798.9653 KinEng   =      9907.0703 Temp     =       298.5106 
PotEng   =    -35706.0356 E_bond   =      3737.8306 E_angle  =      2138.2322 
E_dihed  =         1.7506 E_impro  =         0.9218 E_vdwl   =      5071.9395 
E_coul   =    155879.3218 E_long   =   -202536.0322 Press    =      -624.1854
------------ Step           9966 ----- CPU =      45934.4 (sec) -------------
TotEng   =    -25795.5880 KinEng   =      9907.0703 Temp     =       298.5106 
PotEng   =    -35702.6583 E_bond   =      3779.2564 E_angle  =      2135.9524 
E_dihed  =         1.7616 E_impro  =         0.9563 E_vdwl   =      5071.7332 
E_coul   =    155843.7813 E_long   =   -202536.0995 Press    =     -1034.6221
------------ Step           9967 ----- CPU =     45938.84 (sec) -------------
TotEng   =    -25732.8808 KinEng   =      9907.0703 Temp     =       298.5106 
PotEng   =    -35639.9511 E_bond   =      3852.2919 E_angle  =      2139.9051 
E_dihed  =         1.7662 E_impro  =         0.9718 E_vdwl   =      5071.2920 
E_coul   =    155829.8898 E_long   =   -202536.0678 Press    =     -1233.9604
------------ Step           9968 ----- CPU =     45943.92 (sec) -------------
TotEng   =    -25696.6585 KinEng   =      9907.0703 Temp     =       298.5106 
PotEng   =    -35603.7288 E_bond   =      3871.4487 E_angle  =      2145.0907 
E_dihed  =         1.7550 E_impro  =         0.9646 E_vdwl   =      5070.8463 
E_coul   =    155842.4880 E_long   =   -202536.3222 Press    =     -1159.8354
------------ Step           9969 ----- CPU =     45947.92 (sec) -------------
TotEng   =    -25734.2351 KinEng   =      9907.0703 Temp     =       298.5106 
PotEng   =    -35641.3054 E_bond   =      3795.0353 E_angle  =      2148.0575 
E_dihed  =         1.7228 E_impro  =         0.9055 E_vdwl   =      5068.1389 
E_coul   =    155882.1038 E_long   =   -202537.2692 Press    =      -813.4778
------------ Step           9970 ----- CPU =     45952.15 (sec) -------------
TotEng   =    -25776.9862 KinEng   =      9907.0703 Temp     =       298.5106 
PotEng   =    -35684.0565 E_bond   =      3706.4445 E_angle  =      2144.3339 
E_dihed  =         1.7154 E_impro  =         0.8420 E_vdwl   =      5063.2890 
E_coul   =    155938.2132 E_long   =   -202538.8945 Press    =      -326.1702
------------ Step           9971 ----- CPU =     45956.07 (sec) -------------
TotEng   =    -25777.0379 KinEng   =      9907.0703 Temp     =       298.5106 
PotEng   =    -35684.1082 E_bond   =      3675.4383 E_angle  =      2135.4418 
E_dihed  =         1.7056 E_impro  =         0.7581 E_vdwl   =      5058.1323 
E_coul   =    155985.3633 E_long   =   -202540.9476 Press    =        52.7286
------------ Step           9972 ----- CPU =      45960.1 (sec) -------------
TotEng   =    -25740.4916 KinEng   =      9907.0703 Temp     =       298.5106 
PotEng   =    -35647.5619 E_bond   =      3706.5595 E_angle  =      2122.8307 
E_dihed  =         1.6871 E_impro  =         0.6601 E_vdwl   =      5053.7644 
E_coul   =    156009.6500 E_long   =   -202542.7136 Press    =       142.1087
------------ Step           9973 ----- CPU =     45965.05 (sec) -------------
TotEng   =    -25733.0785 KinEng   =      9907.0703 Temp     =       298.5106 
PotEng   =    -35640.1488 E_bond   =      3730.1855 E_angle  =      2111.2396 
E_dihed  =         1.6907 E_impro  =         0.5820 E_vdwl   =      5050.8231 
E_coul   =    156008.8094 E_long   =   -202543.4791 Press    =       -39.1424
------------ Step           9974 ----- CPU =     45969.05 (sec) -------------
TotEng   =    -25768.3278 KinEng   =      9907.0703 Temp     =       298.5106 
PotEng   =    -35675.3981 E_bond   =      3724.8880 E_angle  =      2097.5583 
E_dihed  =         1.7296 E_impro  =         0.5530 E_vdwl   =      5050.6051 
E_coul   =    155992.0990 E_long   =   -202542.8310 Press    =      -404.5020
------------ Step           9975 ----- CPU =     45973.42 (sec) -------------
TotEng   =    -25794.2006 KinEng   =      9907.0703 Temp     =       298.5106 
PotEng   =    -35701.2709 E_bond   =      3723.5132 E_angle  =      2091.4859 
E_dihed  =         1.8003 E_impro  =         0.5762 E_vdwl   =      5051.3061 
E_coul   =    155970.9472 E_long   =   -202540.8999 Press    =      -774.2351
------------ Step           9976 ----- CPU =     45977.32 (sec) -------------
TotEng   =    -25763.2017 KinEng   =      9907.0703 Temp     =       298.5106 
PotEng   =    -35670.2720 E_bond   =      3765.1568 E_angle  =      2097.9796 
E_dihed  =         1.9147 E_impro  =         0.6755 E_vdwl   =      5053.7733 
E_coul   =    155948.4434 E_long   =   -202538.2154 Press    =     -1058.9887
------------ Step           9977 ----- CPU =     45981.06 (sec) -------------
TotEng   =    -25697.2967 KinEng   =      9907.0703 Temp     =       298.5106 
PotEng   =    -35604.3670 E_bond   =      3826.8421 E_angle  =      2109.2260 
E_dihed  =         2.0807 E_impro  =         0.8369 E_vdwl   =      5057.2330 
E_coul   =    155934.8279 E_long   =   -202535.4135 Press    =     -1148.9181
------------ Step           9978 ----- CPU =     45986.53 (sec) -------------
TotEng   =    -25658.9425 KinEng   =      9907.0703 Temp     =       298.5106 
PotEng   =    -35566.0128 E_bond   =      3834.9980 E_angle  =      2124.0872 
E_dihed  =         2.2657 E_impro  =         1.0123 E_vdwl   =      5060.3409 
E_coul   =    155944.1473 E_long   =   -202532.8641 Press    =      -914.4286
------------ Step           9979 ----- CPU =     45990.68 (sec) -------------
TotEng   =    -25674.3252 KinEng   =      9907.0703 Temp     =       298.5106 
PotEng   =    -35581.3955 E_bond   =      3778.5643 E_angle  =      2135.7945 
E_dihed  =         2.4627 E_impro  =         1.1775 E_vdwl   =      5062.9733 
E_coul   =    155968.4806 E_long   =   -202530.8484 Press    =      -518.5225
------------ Step           9980 ----- CPU =     45994.44 (sec) -------------
TotEng   =    -25717.9464 KinEng   =      9907.0703 Temp     =       298.5106 
PotEng   =    -35625.0167 E_bond   =      3697.8825 E_angle  =      2140.4387 
E_dihed  =         2.6511 E_impro  =         1.2940 E_vdwl   =      5063.9498 
E_coul   =    155998.2403 E_long   =   -202529.4731 Press    =       -99.9983
------------ Step           9981 ----- CPU =     45998.09 (sec) -------------
TotEng   =    -25726.5681 KinEng   =      9907.0703 Temp     =       298.5106 
PotEng   =    -35633.6384 E_bond   =      3664.3149 E_angle  =      2137.2605 
E_dihed  =         2.7966 E_impro  =         1.3840 E_vdwl   =      5063.0027 
E_coul   =    156026.9966 E_long   =   -202529.3938 Press    =       165.0090
------------ Step           9982 ----- CPU =     46002.39 (sec) -------------
TotEng   =    -25688.2530 KinEng   =      9907.0703 Temp     =       298.5106 
PotEng   =    -35595.3233 E_bond   =      3699.8914 E_angle  =      2129.9207 
E_dihed  =         2.9202 E_impro  =         1.4347 E_vdwl   =      5062.0971 
E_coul   =    156038.3936 E_long   =   -202529.9811 Press    =       184.3148
------------ Step           9983 ----- CPU =     46007.32 (sec) -------------
TotEng   =    -25665.9378 KinEng   =      9907.0703 Temp     =       298.5106 
PotEng   =    -35573.0081 E_bond   =      3737.5284 E_angle  =      2118.3435 
E_dihed  =         3.0205 E_impro  =         1.4522 E_vdwl   =      5061.7493 
E_coul   =    156035.6938 E_long   =   -202530.7958 Press    =       -14.3101
------------ Step           9984 ----- CPU =     46011.33 (sec) -------------
TotEng   =    -25703.5979 KinEng   =      9907.0703 Temp     =       298.5106 
PotEng   =    -35610.6682 E_bond   =      3741.9068 E_angle  =      2107.4028 
E_dihed  =         3.0654 E_impro  =         1.4497 E_vdwl   =      5064.2310 
E_coul   =    156002.8372 E_long   =   -202531.5612 Press    =      -438.5390
------------ Step           9985 ----- CPU =     46015.32 (sec) -------------
TotEng   =    -25756.8420 KinEng   =      9907.0703 Temp     =       298.5106 
PotEng   =    -35663.9123 E_bond   =      3731.2825 E_angle  =      2101.6887 
E_dihed  =         3.0577 E_impro  =         1.4284 E_vdwl   =      5070.5576 
E_coul   =    155960.3382 E_long   =   -202532.2655 Press    =      -845.3553
------------ Step           9986 ----- CPU =     46019.07 (sec) -------------
TotEng   =    -25764.8866 KinEng   =      9907.0703 Temp     =       298.5106 
PotEng   =    -35671.9569 E_bond   =      3759.6231 E_angle  =      2106.0153 
E_dihed  =         3.0267 E_impro  =         1.4110 E_vdwl   =      5080.1187 
E_coul   =    155910.2298 E_long   =   -202532.3814 Press    =     -1171.1088
------------ Step           9987 ----- CPU =     46023.07 (sec) -------------
TotEng   =    -25726.8621 KinEng   =      9907.0703 Temp     =       298.5106 
PotEng   =    -35633.9324 E_bond   =      3819.8619 E_angle  =      2107.9644 
E_dihed  =         2.9534 E_impro  =         1.3755 E_vdwl   =      5090.3649 
E_coul   =    155875.8683 E_long   =   -202532.3207 Press    =     -1295.4324
------------ Step           9988 ----- CPU =     46028.45 (sec) -------------
TotEng   =    -25693.7597 KinEng   =      9907.0703 Temp     =       298.5106 
PotEng   =    -35600.8300 E_bond   =      3844.6657 E_angle  =      2111.0355 
E_dihed  =         2.8770 E_impro  =         1.3361 E_vdwl   =      5098.0554 
E_coul   =    155873.1696 E_long   =   -202531.9693 Press    =     -1061.6929
------------ Step           9989 ----- CPU =     46032.32 (sec) -------------
TotEng   =    -25720.8793 KinEng   =      9907.0703 Temp     =       298.5106 
PotEng   =    -35627.9496 E_bond   =      3792.3816 E_angle  =      2101.7837 
E_dihed  =         2.7810 E_impro  =         1.2661 E_vdwl   =      5103.0941 
E_coul   =    155902.9226 E_long   =   -202532.1787 Press    =      -563.6441
------------ Step           9990 ----- CPU =     46036.72 (sec) -------------
TotEng   =    -25780.4019 KinEng   =      9907.0703 Temp     =       298.5106 
PotEng   =    -35687.4722 E_bond   =      3698.1361 E_angle  =      2089.4780 
E_dihed  =         2.6566 E_impro  =         1.1682 E_vdwl   =      5105.4534 
E_coul   =    155949.2072 E_long   =   -202533.5715 Press    =        42.2611
------------ Step           9991 ----- CPU =      46040.5 (sec) -------------
TotEng   =    -25794.8908 KinEng   =      9907.0703 Temp     =       298.5106 
PotEng   =    -35701.9611 E_bond   =      3654.3497 E_angle  =      2083.3317 
E_dihed  =         2.5223 E_impro  =         1.0488 E_vdwl   =      5107.4858 
E_coul   =    155985.1113 E_long   =   -202535.8108 Press    =       453.9326
------------ Step           9992 ----- CPU =     46044.31 (sec) -------------
TotEng   =    -25770.4298 KinEng   =      9907.0703 Temp     =       298.5106 
PotEng   =    -35677.5001 E_bond   =      3669.0428 E_angle  =      2085.4691 
E_dihed  =         2.3616 E_impro  =         0.9218 E_vdwl   =      5109.6037 
E_coul   =    155993.1893 E_long   =   -202538.0885 Press    =       524.3434
------------ Step           9993 ----- CPU =     46049.62 (sec) -------------
TotEng   =    -25743.4749 KinEng   =      9907.0703 Temp     =       298.5106 
PotEng   =    -35650.5452 E_bond   =      3706.3184 E_angle  =      2092.5185 
E_dihed  =         2.1923 E_impro  =         0.7815 E_vdwl   =      5113.0647 
E_coul   =    155974.4081 E_long   =   -202539.8287 Press    =       280.6087
------------ Step           9994 ----- CPU =      46053.8 (sec) -------------
TotEng   =    -25747.8213 KinEng   =      9907.0703 Temp     =       298.5106 
PotEng   =    -35654.8916 E_bond   =      3729.2730 E_angle  =      2101.4370 
E_dihed  =         2.0287 E_impro  =         0.6310 E_vdwl   =      5118.2593 
E_coul   =    155934.3160 E_long   =   -202540.8365 Press    =      -145.3303
------------ Step           9995 ----- CPU =     46057.89 (sec) -------------
TotEng   =    -25778.7860 KinEng   =      9907.0703 Temp     =       298.5106 
PotEng   =    -35685.8563 E_bond   =      3736.7589 E_angle  =      2111.6565 
E_dihed  =         1.8934 E_impro  =         0.4943 E_vdwl   =      5125.0762 
E_coul   =    155880.1488 E_long   =   -202541.8844 Press    =      -619.6573
------------ Step           9996 ----- CPU =     46061.95 (sec) -------------
TotEng   =    -25796.7724 KinEng   =      9907.0703 Temp     =       298.5106 
PotEng   =    -35703.8427 E_bond   =      3762.1711 E_angle  =      2117.0749 
E_dihed  =         1.8038 E_impro  =         0.3800 E_vdwl   =      5131.8313 
E_coul   =    155826.1816 E_long   =   -202543.2855 Press    =     -1041.0702
------------ Step           9997 ----- CPU =     46065.79 (sec) -------------
TotEng   =    -25770.0450 KinEng   =      9907.0703 Temp     =       298.5106 
PotEng   =    -35677.1153 E_bond   =      3821.8274 E_angle  =    