14
# CELL(abcABC): 1000.00000  1000.00000  1000.00000    90.00000    90.00000    90.00000  Step:          99  Bead:       0 positions{angstrom}  cell{angstrom}
       C -6.63937e-01  6.32042e-01  1.01578e-01
       C  2.42049e-01 -4.74660e-01  7.17395e-01
       C -1.83426e+00  2.34362e-01 -7.77774e-01
       C -7.88414e-01  1.87347e+00  9.37581e-01
       H -1.48141e+00  1.74484e+00  1.76103e+00
       H -1.13298e+00  2.74313e+00  4.16491e-01
       H  1.42045e-01  2.13864e+00  1.44641e+00
       H -1.53609e+00 -5.25773e-01 -1.55942e+00
       H -2.35208e+00  1.09597e+00 -1.24616e+00
       H -2.51762e+00 -3.07312e-01 -1.56155e-01
       H  1.18049e+00 -2.27739e-01  8.34351e-01
       H  1.25027e-01 -1.36642e+00  1.55660e-01
       H -1.99274e-01 -6.41709e-01  1.69526e+00
       H -1.16763e-01  8.32027e-01 -7.14133e-01
