4
# CELL(abcABC): 1000.00000  1000.00000  1000.00000    90.00000    90.00000    90.00000  Step:           0  Bead:       0 positions{angstrom}  cell{angstrom}
       O -3.15260e+00  1.10375e+00  3.40871e-01
       H -2.65015e+00  5.87852e-01 -2.88539e-01
       H -2.60429e+00  1.09268e+00  1.15303e+00
       H -4.08901e+00  8.69857e-01  4.10377e-01
4
# CELL(abcABC): 1000.00000  1000.00000  1000.00000    90.00000    90.00000    90.00000  Step:           1  Bead:       0 positions{angstrom}  cell{angstrom}
       O -3.15085e+00  1.10409e+00  3.40374e-01
       H -2.65976e+00  5.79937e-01 -2.85888e-01
       H -2.60477e+00  1.09226e+00  1.15457e+00
       H -4.10673e+00  8.72713e-01  4.14072e-01
4
# CELL(abcABC): 1000.00000  1000.00000  1000.00000    90.00000    90.00000    90.00000  Step:           2  Bead:       0 positions{angstrom}  cell{angstrom}
       O -3.14918e+00  1.10452e+00  3.39995e-01
       H -2.66914e+00  5.70500e-01 -2.86133e-01
       H -2.60495e+00  1.09232e+00  1.15685e+00
       H -4.12368e+00  8.75273e-01  4.18054e-01
4
# CELL(abcABC): 1000.00000  1000.00000  1000.00000    90.00000    90.00000    90.00000  Step:           3  Bead:       0 positions{angstrom}  cell{angstrom}
       O -3.14757e+00  1.10508e+00  3.39683e-01
       H -2.67755e+00  5.58086e-01 -2.87880e-01
       H -2.60673e+00  1.09400e+00  1.16037e+00
       H -4.13908e+00  8.77243e-01  4.21233e-01
4
# CELL(abcABC): 1000.00000  1000.00000  1000.00000    90.00000    90.00000    90.00000  Step:           4  Bead:       0 positions{angstrom}  cell{angstrom}
       O -3.14614e+00  1.10574e+00  3.39589e-01
       H -2.68590e+00  5.42844e-01 -2.93533e-01
       H -2.60924e+00  1.09690e+00  1.16394e+00
       H -4.15080e+00  8.79023e-01  4.24811e-01
4
# CELL(abcABC): 1000.00000  1000.00000  1000.00000    90.00000    90.00000    90.00000  Step:           5  Bead:       0 positions{angstrom}  cell{angstrom}
       O -3.14482e+00  1.10632e+00  3.39638e-01
       H -2.69516e+00  5.26522e-01 -3.01390e-01
       H -2.61373e+00  1.10152e+00  1.16889e+00
       H -4.15802e+00  8.81607e-01  4.26935e-01
4
# CELL(abcABC): 1000.00000  1000.00000  1000.00000    90.00000    90.00000    90.00000  Step:           6  Bead:       0 positions{angstrom}  cell{angstrom}
       O -3.14360e+00  1.10694e+00  3.39779e-01
       H -2.70489e+00  5.10050e-01 -3.11106e-01
       H -2.62015e+00  1.10504e+00  1.17307e+00
       H -4.16135e+00  8.84621e-01  4.30233e-01
4
# CELL(abcABC): 1000.00000  1000.00000  1000.00000    90.00000    90.00000    90.00000  Step:           7  Bead:       0 positions{angstrom}  cell{angstrom}
       O -3.14262e+00  1.10740e+00  3.39720e-01
       H -2.71410e+00  4.93959e-01 -3.19371e-01
       H -2.62787e+00  1.10853e+00  1.17824e+00
       H -4.15993e+00  8.90021e-01  4.34267e-01
4
# CELL(abcABC): 1000.00000  1000.00000  1000.00000    90.00000    90.00000    90.00000  Step:           8  Bead:       0 positions{angstrom}  cell{angstrom}
       O -3.14191e+00  1.10775e+00  3.39649e-01
       H -2.72351e+00  4.78961e-01 -3.27184e-01
       H -2.63554e+00  1.11123e+00  1.18291e+00
       H -4.15403e+00  8.96754e-01  4.38537e-01
4
# CELL(abcABC): 1000.00000  1000.00000  1000.00000    90.00000    90.00000    90.00000  Step:           9  Bead:       0 positions{angstrom}  cell{angstrom}
       O -3.14141e+00  1.10804e+00  3.39333e-01
       H -2.73419e+00  4.64822e-01 -3.31957e-01
       H -2.64291e+00  1.11400e+00  1.18825e+00
       H -4.14395e+00  9.03492e-01  4.42987e-01
4
# CELL(abcABC): 1000.00000  1000.00000  1000.00000    90.00000    90.00000    90.00000  Step:          10  Bead:       0 positions{angstrom}  cell{angstrom}
       O -3.14103e+00  1.10810e+00  3.38991e-01
       H -2.74600e+00  4.52795e-01 -3.35026e-01
       H -2.65068e+00  1.11719e+00  1.19279e+00
       H -4.13046e+00  9.11341e-01  4.46950e-01
4
# CELL(abcABC): 1000.00000  1000.00000  1000.00000    90.00000    90.00000    90.00000  Step:          11  Bead:       0 positions{angstrom}  cell{angstrom}
       O -3.14070e+00  1.10801e+00  3.38625e-01
       H -2.75866e+00  4.43929e-01 -3.36594e-01
       H -2.66013e+00  1.11970e+00  1.19670e+00
       H -4.11356e+00  9.19153e-01  4.50409e-01
4
# CELL(abcABC): 1000.00000  1000.00000  1000.00000    90.00000    90.00000    90.00000  Step:          12  Bead:       0 positions{angstrom}  cell{angstrom}
       O -3.14050e+00  1.10783e+00  3.38156e-01
       H -2.77081e+00  4.37495e-01 -3.35538e-01
       H -2.66983e+00  1.12046e+00  1.19940e+00
       H -4.09480e+00  9.27713e-01  4.54107e-01
4
# CELL(abcABC): 1000.00000  1000.00000  1000.00000    90.00000    90.00000    90.00000  Step:          13  Bead:       0 positions{angstrom}  cell{angstrom}
       O -3.14030e+00  1.10754e+00  3.37479e-01
       H -2.78339e+00  4.34257e-01 -3.31307e-01
       H -2.67813e+00  1.12047e+00  1.20197e+00
       H -4.07724e+00  9.35495e-01  4.58055e-01
4
# CELL(abcABC): 1000.00000  1000.00000  1000.00000    90.00000    90.00000    90.00000  Step:          14  Bead:       0 positions{angstrom}  cell{angstrom}
       O -3.13999e+00  1.10715e+00  3.36580e-01
       H -2.79471e+00  4.33088e-01 -3.23974e-01
       H -2.68556e+00  1.12043e+00  1.20440e+00
       H -4.06340e+00  9.42843e-01  4.62559e-01
4
# CELL(abcABC): 1000.00000  1000.00000  1000.00000    90.00000    90.00000    90.00000  Step:          15  Bead:       0 positions{angstrom}  cell{angstrom}
       O -3.13937e+00  1.10662e+00  3.35298e-01
       H -2.80774e+00  4.33272e-01 -3.12257e-01
       H -2.69308e+00  1.12029e+00  1.20691e+00
       H -4.05262e+00  9.51281e-01  4.68679e-01
4
# CELL(abcABC): 1000.00000  1000.00000  1000.00000    90.00000    90.00000    90.00000  Step:          16  Bead:       0 positions{angstrom}  cell{angstrom}
       O -3.13851e+00  1.10603e+00  3.33890e-01
       H -2.81895e+00  4.34061e-01 -2.99471e-01
       H -2.70009e+00  1.12065e+00  1.20937e+00
       H -4.04808e+00  9.59423e-01  4.75790e-01
4
# CELL(abcABC): 1000.00000  1000.00000  1000.00000    90.00000    90.00000    90.00000  Step:          17  Bead:       0 positions{angstrom}  cell{angstrom}
       O -3.13727e+00  1.10553e+00  3.32414e-01
       H -2.82817e+00  4.35219e-01 -2.86028e-01
       H -2.70733e+00  1.12117e+00  1.21068e+00
       H -4.05135e+00  9.65824e-01  4.84452e-01
4
# CELL(abcABC): 1000.00000  1000.00000  1000.00000    90.00000    90.00000    90.00000  Step:          18  Bead:       0 positions{angstrom}  cell{angstrom}
       O -3.13578e+00  1.10507e+00  3.30952e-01
       H -2.83662e+00  4.35897e-01 -2.73050e-01
       H -2.71250e+00  1.12123e+00  1.21179e+00
       H -4.06138e+00  9.72306e-01  4.93577e-01
4
# CELL(abcABC): 1000.00000  1000.00000  1000.00000    90.00000    90.00000    90.00000  Step:          19  Bead:       0 positions{angstrom}  cell{angstrom}
       O -3.13430e+00  1.10487e+00  3.29583e-01
       H -2.84237e+00  4.33864e-01 -2.61371e-01
       H -2.71734e+00  1.12025e+00  1.21211e+00
       H -4.07415e+00  9.78498e-01  5.03314e-01
4
# CELL(abcABC): 1000.00000  1000.00000  1000.00000    90.00000    90.00000    90.00000  Step:          20  Bead:       0 positions{angstrom}  cell{angstrom}
       O -3.13290e+00  1.10498e+00  3.28462e-01
       H -2.84542e+00  4.28687e-01 -2.53694e-01
       H -2.72187e+00  1.11889e+00  1.21262e+00
       H -4.08881e+00  9.83351e-01  5.12913e-01
4
# CELL(abcABC): 1000.00000  1000.00000  1000.00000    90.00000    90.00000    90.00000  Step:          21  Bead:       0 positions{angstrom}  cell{angstrom}
       O -3.13179e+00  1.10536e+00  3.27656e-01
       H -2.84624e+00  4.19010e-01 -2.50125e-01
       H -2.72338e+00  1.11762e+00  1.21412e+00
       H -4.10417e+00  9.88209e-01  5.20639e-01
4
# CELL(abcABC): 1000.00000  1000.00000  1000.00000    90.00000    90.00000    90.00000  Step:          22  Bead:       0 positions{angstrom}  cell{angstrom}
       O -3.13105e+00  1.10592e+00  3.27206e-01
       H -2.84586e+00  4.04840e-01 -2.48196e-01
       H -2.72125e+00  1.11611e+00  1.21394e+00
       H -4.11840e+00  9.95052e-01  5.26023e-01
4
# CELL(abcABC): 1000.00000  1000.00000  1000.00000    90.00000    90.00000    90.00000  Step:          23  Bead:       0 positions{angstrom}  cell{angstrom}
       O -3.13071e+00  1.10664e+00  3.27185e-01
       H -2.84357e+00  3.88538e-01 -2.48627e-01
       H -2.71667e+00  1.11463e+00  1.21400e+00
       H -4.13065e+00  1.00127e+00  5.26742e-01
4
# CELL(abcABC): 1000.00000  1000.00000  1000.00000    90.00000    90.00000    90.00000  Step:          24  Bead:       0 positions{angstrom}  cell{angstrom}
       O -3.13078e+00  1.10737e+00  3.27366e-01
       H -2.83961e+00  3.69938e-01 -2.49905e-01
       H -2.71024e+00  1.11378e+00  1.21400e+00
       H -4.13994e+00  1.00928e+00  5.25155e-01
4
# CELL(abcABC): 1000.00000  1000.00000  1000.00000    90.00000    90.00000    90.00000  Step:          25  Bead:       0 positions{angstrom}  cell{angstrom}
       O -3.13117e+00  1.10817e+00  3.27591e-01
       H -2.83531e+00  3.50571e-01 -2.50023e-01
       H -2.70294e+00  1.11185e+00  1.21367e+00
       H -4.14539e+00  1.01788e+00  5.22031e-01
4
# CELL(abcABC): 1000.00000  1000.00000  1000.00000    90.00000    90.00000    90.00000  Step:          26  Bead:       0 positions{angstrom}  cell{angstrom}
       O -3.13186e+00  1.10895e+00  3.27866e-01
       H -2.83129e+00  3.32181e-01 -2.49515e-01
       H -2.69439e+00  1.10924e+00  1.21244e+00
       H -4.14705e+00  1.02640e+00  5.18378e-01
4
# CELL(abcABC): 1000.00000  1000.00000  1000.00000    90.00000    90.00000    90.00000  Step:          27  Bead:       0 positions{angstrom}  cell{angstrom}
       O -3.13290e+00  1.10955e+00  3.28194e-01
       H -2.82827e+00  3.17581e-01 -2.47593e-01
       H -2.68520e+00  1.10542e+00  1.21000e+00
       H -4.14269e+00  1.03526e+00  5.13689e-01
4
# CELL(abcABC): 1000.00000  1000.00000  1000.00000    90.00000    90.00000    90.00000  Step:          28  Bead:       0 positions{angstrom}  cell{angstrom}
       O -3.13407e+00  1.10994e+00  3.28449e-01
       H -2.82754e+00  3.05142e-01 -2.43308e-01
       H -2.67508e+00  1.10145e+00  1.20683e+00
       H -4.13492e+00  1.04560e+00  5.08529e-01
4
# CELL(abcABC): 1000.00000  1000.00000  1000.00000    90.00000    90.00000    90.00000  Step:          29  Bead:       0 positions{angstrom}  cell{angstrom}
       O -3.13537e+00  1.11001e+00  3.28683e-01
       H -2.82762e+00  2.97265e-01 -2.37742e-01
       H -2.66591e+00  1.09727e+00  1.20256e+00
       H -4.12336e+00  1.05642e+00  5.03515e-01
4
# CELL(abcABC): 1000.00000  1000.00000  1000.00000    90.00000    90.00000    90.00000  Step:          30  Bead:       0 positions{angstrom}  cell{angstrom}
       O -3.13668e+00  1.10969e+00  3.28826e-01
       H -2.82900e+00  2.94889e-01 -2.28747e-01
       H -2.65725e+00  1.09304e+00  1.19760e+00
       H -4.10992e+00  1.06816e+00  4.97215e-01
4
# CELL(abcABC): 1000.00000  1000.00000  1000.00000    90.00000    90.00000    90.00000  Step:          31  Bead:       0 positions{angstrom}  cell{angstrom}
       O -3.13801e+00  1.10896e+00  3.28966e-01
       H -2.83052e+00  2.97012e-01 -2.17202e-01
       H -2.64851e+00  1.09009e+00  1.19094e+00
       H -4.09598e+00  1.08062e+00  4.90107e-01
4
# CELL(abcABC): 1000.00000  1000.00000  1000.00000    90.00000    90.00000    90.00000  Step:          32  Bead:       0 positions{angstrom}  cell{angstrom}
       O -3.13910e+00  1.10805e+00  3.28863e-01
       H -2.83461e+00  3.01070e-01 -2.03226e-01
       H -2.63997e+00  1.08878e+00  1.18461e+00
       H -4.08319e+00  1.09236e+00  4.84085e-01
4
# CELL(abcABC): 1000.00000  1000.00000  1000.00000    90.00000    90.00000    90.00000  Step:          33  Bead:       0 positions{angstrom}  cell{angstrom}
       O -3.13984e+00  1.10704e+00  3.28604e-01
       H -2.84071e+00  3.07343e-01 -1.86943e-01
       H -2.63196e+00  1.08704e+00  1.17804e+00
       H -4.07332e+00  1.10378e+00  4.78481e-01
4
# CELL(abcABC): 1000.00000  1000.00000  1000.00000    90.00000    90.00000    90.00000  Step:          34  Bead:       0 positions{angstrom}  cell{angstrom}
       O -3.14004e+00  1.10593e+00  3.28429e-01
       H -2.84753e+00  3.15039e-01 -1.70757e-01
       H -2.62682e+00  1.08552e+00  1.17128e+00
       H -4.06851e+00  1.11528e+00  4.71838e-01
4
# CELL(abcABC): 1000.00000  1000.00000  1000.00000    90.00000    90.00000    90.00000  Step:          35  Bead:       0 positions{angstrom}  cell{angstrom}
       O -3.13984e+00  1.10473e+00  3.28288e-01
       H -2.85336e+00  3.22681e-01 -1.56435e-01
       H -2.62398e+00  1.08579e+00  1.16503e+00
       H -4.06872e+00  1.12641e+00  4.66007e-01
4
# CELL(abcABC): 1000.00000  1000.00000  1000.00000    90.00000    90.00000    90.00000  Step:          36  Bead:       0 positions{angstrom}  cell{angstrom}
       O -3.13927e+00  1.10348e+00  3.28246e-01
       H -2.85915e+00  3.28721e-01 -1.44935e-01
       H -2.62200e+00  1.08834e+00  1.15822e+00
       H -4.07383e+00  1.13757e+00  4.61982e-01
4
# CELL(abcABC): 1000.00000  1000.00000  1000.00000    90.00000    90.00000    90.00000  Step:          37  Bead:       0 positions{angstrom}  cell{angstrom}
       O -3.13848e+00  1.10242e+00  3.28211e-01
       H -2.86405e+00  3.32446e-01 -1.35000e-01
       H -2.62028e+00  1.09135e+00  1.15170e+00
       H -4.08329e+00  1.14763e+00  4.59120e-01
4
# CELL(abcABC): 1000.00000  1000.00000  1000.00000    90.00000    90.00000    90.00000  Step:          38  Bead:       0 positions{angstrom}  cell{angstrom}
       O -3.13736e+00  1.10158e+00  3.28482e-01
       H -2.86932e+00  3.31544e-01 -1.30381e-01
       H -2.61890e+00  1.09436e+00  1.14622e+00
       H -4.09706e+00  1.15900e+00  4.55685e-01
4
# CELL(abcABC): 1000.00000  1000.00000  1000.00000    90.00000    90.00000    90.00000  Step:          39  Bead:       0 positions{angstrom}  cell{angstrom}
       O -3.13640e+00  1.10110e+00  3.28785e-01
       H -2.87310e+00  3.25134e-01 -1.29656e-01
       H -2.61718e+00  1.09726e+00  1.14347e+00
       H -4.11024e+00  1.17005e+00  4.52898e-01
4
# CELL(abcABC): 1000.00000  1000.00000  1000.00000    90.00000    90.00000    90.00000  Step:          40  Bead:       0 positions{angstrom}  cell{angstrom}
       O -3.13558e+00  1.10082e+00  3.29008e-01
       H -2.87625e+00  3.14362e-01 -1.32039e-01
       H -2.61504e+00  1.10129e+00  1.14444e+00
       H -4.12230e+00  1.18130e+00  4.50781e-01
4
# CELL(abcABC): 1000.00000  1000.00000  1000.00000    90.00000    90.00000    90.00000  Step:          41  Bead:       0 positions{angstrom}  cell{angstrom}
       O -3.13491e+00  1.10069e+00  3.29241e-01
       H -2.87945e+00  3.00895e-01 -1.38142e-01
       H -2.61216e+00  1.10659e+00  1.14771e+00
       H -4.13265e+00  1.19154e+00  4.49904e-01
4
# CELL(abcABC): 1000.00000  1000.00000  1000.00000    90.00000    90.00000    90.00000  Step:          42  Bead:       0 positions{angstrom}  cell{angstrom}
       O -3.13453e+00  1.10079e+00  3.29554e-01
       H -2.88137e+00  2.83634e-01 -1.46834e-01
       H -2.60907e+00  1.11270e+00  1.15294e+00
       H -4.13984e+00  1.20103e+00  4.48403e-01
4
# CELL(abcABC): 1000.00000  1000.00000  1000.00000    90.00000    90.00000    90.00000  Step:          43  Bead:       0 positions{angstrom}  cell{angstrom}
       O -3.13431e+00  1.10084e+00  3.29869e-01
       H -2.88421e+00  2.67090e-01 -1.56884e-01
       H -2.60619e+00  1.12076e+00  1.15941e+00
       H -4.14339e+00  1.20873e+00  4.46973e-01
4
# CELL(abcABC): 1000.00000  1000.00000  1000.00000    90.00000    90.00000    90.00000  Step:          44  Bead:       0 positions{angstrom}  cell{angstrom}
       O -3.13421e+00  1.10085e+00  3.30150e-01
       H -2.88784e+00  2.51397e-01 -1.67428e-01
       H -2.60393e+00  1.12885e+00  1.16573e+00
       H -4.14362e+00  1.21618e+00  4.46748e-01
4
# CELL(abcABC): 1000.00000  1000.00000  1000.00000    90.00000    90.00000    90.00000  Step:          45  Bead:       0 positions{angstrom}  cell{angstrom}
       O -3.13412e+00  1.10074e+00  3.30438e-01
       H -2.89328e+00  2.38737e-01 -1.77524e-01
       H -2.60198e+00  1.13656e+00  1.17089e+00
       H -4.14151e+00  1.22288e+00  4.47110e-01
4
# CELL(abcABC): 1000.00000  1000.00000  1000.00000    90.00000    90.00000    90.00000  Step:          46  Bead:       0 positions{angstrom}  cell{angstrom}
       O -3.13416e+00  1.10046e+00  3.30696e-01
       H -2.90014e+00  2.30600e-01 -1.86193e-01
       H -2.60137e+00  1.14347e+00  1.17467e+00
       H -4.13472e+00  1.22858e+00  4.47908e-01
4
# CELL(abcABC): 1000.00000  1000.00000  1000.00000    90.00000    90.00000    90.00000  Step:          47  Bead:       0 positions{angstrom}  cell{angstrom}
       O -3.13420e+00  1.09984e+00  3.31008e-01
       H -2.90828e+00  2.26703e-01 -1.92248e-01
       H -2.60197e+00  1.15047e+00  1.17626e+00
       H -4.12523e+00  1.23534e+00  4.47420e-01
4
# CELL(abcABC): 1000.00000  1000.00000  1000.00000    90.00000    90.00000    90.00000  Step:          48  Bead:       0 positions{angstrom}  cell{angstrom}
       O -3.13423e+00  1.09906e+00  3.31230e-01
       H -2.91711e+00  2.26501e-01 -1.95369e-01
       H -2.60391e+00  1.15778e+00  1.17559e+00
       H -4.11406e+00  1.24058e+00  4.47674e-01
4
# CELL(abcABC): 1000.00000  1000.00000  1000.00000    90.00000    90.00000    90.00000  Step:          49  Bead:       0 positions{angstrom}  cell{angstrom}
       O -3.13425e+00  1.09804e+00  3.31249e-01
       H -2.92686e+00  2.30455e-01 -1.95198e-01
       H -2.60588e+00  1.16442e+00  1.17351e+00
       H -4.10200e+00  1.24623e+00  4.49282e-01
4
# CELL(abcABC): 1000.00000  1000.00000  1000.00000    90.00000    90.00000    90.00000  Step:          50  Bead:       0 positions{angstrom}  cell{angstrom}
       O -3.13401e+00  1.09686e+00  3.31274e-01
       H -2.93771e+00  2.38709e-01 -1.92754e-01
       H -2.61059e+00  1.16983e+00  1.17008e+00
       H -4.09022e+00  1.25126e+00  4.49878e-01
4
# CELL(abcABC): 1000.00000  1000.00000  1000.00000    90.00000    90.00000    90.00000  Step:          51  Bead:       0 positions{angstrom}  cell{angstrom}
       O -3.13366e+00  1.09549e+00  3.31217e-01
       H -2.94944e+00  2.49931e-01 -1.88574e-01
       H -2.61636e+00  1.17501e+00  1.16540e+00
       H -4.07835e+00  1.25659e+00  4.51283e-01
4
# CELL(abcABC): 1000.00000  1000.00000  1000.00000    90.00000    90.00000    90.00000  Step:          52  Bead:       0 positions{angstrom}  cell{angstrom}
       O -3.13313e+00  1.09409e+00  3.31179e-01
       H -2.96176e+00  2.63177e-01 -1.82803e-01
       H -2.62271e+00  1.17904e+00  1.15895e+00
       H -4.06799e+00  1.26146e+00  4.52560e-01
4
# CELL(abcABC): 1000.00000  1000.00000  1000.00000    90.00000    90.00000    90.00000  Step:          53  Bead:       0 positions{angstrom}  cell{angstrom}
       O -3.13248e+00  1.09263e+00  3.31018e-01
       H -2.97331e+00  2.77720e-01 -1.77178e-01
       H -2.62912e+00  1.18394e+00  1.15324e+00
       H -4.06045e+00  1.26524e+00  4.55203e-01
4
# CELL(abcABC): 1000.00000  1000.00000  1000.00000    90.00000    90.00000    90.00000  Step:          54  Bead:       0 positions{angstrom}  cell{angstrom}
       O -3.13167e+00  1.09132e+00  3.30515e-01
       H -2.98431e+00  2.90409e-01 -1.70658e-01
       H -2.63512e+00  1.18902e+00  1.14913e+00
       H -4.05627e+00  1.26831e+00  4.60782e-01
4
# CELL(abcABC): 1000.00000  1000.00000  1000.00000    90.00000    90.00000    90.00000  Step:          55  Bead:       0 positions{angstrom}  cell{angstrom}
       O -3.13082e+00  1.09020e+00  3.29919e-01
       H -2.99484e+00  3.00430e-01 -1.64552e-01
       H -2.63969e+00  1.19368e+00  1.14714e+00
       H -4.05457e+00  1.27130e+00  4.66120e-01
4
# CELL(abcABC): 1000.00000  1000.00000  1000.00000    90.00000    90.00000    90.00000  Step:          56  Bead:       0 positions{angstrom}  cell{angstrom}
       O -3.13003e+00  1.08935e+00  3.29306e-01
       H -3.00174e+00  3.06172e-01 -1.59972e-01
       H -2.64276e+00  1.19750e+00  1.14582e+00
       H -4.05724e+00  1.27528e+00  4.72599e-01
4
# CELL(abcABC): 1000.00000  1000.00000  1000.00000    90.00000    90.00000    90.00000  Step:          57  Bead:       0 positions{angstrom}  cell{angstrom}
       O -3.12928e+00  1.08884e+00  3.28665e-01
       H -3.00531e+00  3.06756e-01 -1.57623e-01
       H -2.64498e+00  1.20024e+00  1.14747e+00
       H -4.06329e+00  1.28012e+00  4.78776e-01
4
# CELL(abcABC): 1000.00000  1000.00000  1000.00000    90.00000    90.00000    90.00000  Step:          58  Bead:       0 positions{angstrom}  cell{angstrom}
       O -3.12875e+00  1.08879e+00  3.28082e-01
       H -3.00592e+00  3.00444e-01 -1.58326e-01
       H -2.64486e+00  1.20223e+00  1.15167e+00
       H -4.07127e+00  1.28510e+00  4.84519e-01
4
# CELL(abcABC): 1000.00000  1000.00000  1000.00000    90.00000    90.00000    90.00000  Step:          59  Bead:       0 positions{angstrom}  cell{angstrom}
       O -3.12847e+00  1.08912e+00  3.27458e-01
       H -3.00381e+00  2.88797e-01 -1.61296e-01
       H -2.64260e+00  1.20386e+00  1.15899e+00
       H -4.08004e+00  1.29001e+00  4.90090e-01
4
# CELL(abcABC): 1000.00000  1000.00000  1000.00000    90.00000    90.00000    90.00000  Step:          60  Bead:       0 positions{angstrom}  cell{angstrom}
       O -3.12847e+00  1.08984e+00  3.26963e-01
       H -3.00121e+00  2.72812e-01 -1.65577e-01
       H -2.63812e+00  1.20385e+00  1.16548e+00
       H -4.08721e+00  1.29459e+00  4.95729e-01
4
# CELL(abcABC): 1000.00000  1000.00000  1000.00000    90.00000    90.00000    90.00000  Step:          61  Bead:       0 positions{angstrom}  cell{angstrom}
       O -3.12880e+00  1.09085e+00  3.26572e-01
       H -2.99657e+00  2.54249e-01 -1.70328e-01
       H -2.63138e+00  1.20242e+00  1.17064e+00
       H -4.09330e+00  1.29845e+00  5.01533e-01
4
# CELL(abcABC): 1000.00000  1000.00000  1000.00000    90.00000    90.00000    90.00000  Step:          62  Bead:       0 positions{angstrom}  cell{angstrom}
       O -3.12929e+00  1.09211e+00  3.26369e-01
       H -2.99201e+00  2.34840e-01 -1.74572e-01
       H -2.62529e+00  1.19919e+00  1.17453e+00
       H -4.09622e+00  1.30120e+00  5.05104e-01
4
# CELL(abcABC): 1000.00000  1000.00000  1000.00000    90.00000    90.00000    90.00000  Step:          63  Bead:       0 positions{angstrom}  cell{angstrom}
       O -3.12990e+00  1.09330e+00  3.26044e-01
       H -2.98686e+00  2.18273e-01 -1.76381e-01
       H -2.61948e+00  1.19380e+00  1.17692e+00
       H -4.09741e+00  1.30419e+00  5.09678e-01
4
# CELL(abcABC): 1000.00000  1000.00000  1000.00000    90.00000    90.00000    90.00000  Step:          64  Bead:       0 positions{angstrom}  cell{angstrom}
       O -3.13069e+00  1.09445e+00  3.25692e-01
       H -2.98061e+00  2.05291e-01 -1.74570e-01
       H -2.61365e+00  1.18678e+00  1.17765e+00
       H -4.09694e+00  1.30594e+00  5.12736e-01
4
# CELL(abcABC): 1000.00000  1000.00000  1000.00000    90.00000    90.00000    90.00000  Step:          65  Bead:       0 positions{angstrom}  cell{angstrom}
       O -3.13158e+00  1.09543e+00  3.25366e-01
       H -2.97565e+00  1.97226e-01 -1.70868e-01
       H -2.60779e+00  1.17971e+00  1.17627e+00
       H -4.09372e+00  1.30547e+00  5.15588e-01
4
# CELL(abcABC): 1000.00000  1000.00000  1000.00000    90.00000    90.00000    90.00000  Step:          66  Bead:       0 positions{angstrom}  cell{angstrom}
       O -3.13251e+00  1.09616e+00  3.24943e-01
       H -2.97160e+00  1.96638e-01 -1.63416e-01
       H -2.60262e+00  1.17003e+00  1.17318e+00
       H -4.08808e+00  1.30422e+00  5.17930e-01
4
# CELL(abcABC): 1000.00000  1000.00000  1000.00000    90.00000    90.00000    90.00000  Step:          67  Bead:       0 positions{angstrom}  cell{angstrom}
       O -3.13335e+00  1.09678e+00  3.24515e-01
       H -2.96832e+00  2.00162e-01 -1.53961e-01
       H -2.59787e+00  1.15955e+00  1.16865e+00
       H -4.08275e+00  1.30129e+00  5.19814e-01
4
# CELL(abcABC): 1000.00000  1000.00000  1000.00000    90.00000    90.00000    90.00000  Step:          68  Bead:       0 positions{angstrom}  cell{angstrom}
       O -3.13414e+00  1.09718e+00  3.24236e-01
       H -2.96559e+00  2.08002e-01 -1.42445e-01
       H -2.59373e+00  1.14856e+00  1.16074e+00
       H -4.07711e+00  1.29809e+00  5.20629e-01
4
# CELL(abcABC): 1000.00000  1000.00000  1000.00000    90.00000    90.00000    90.00000  Step:          69  Bead:       0 positions{angstrom}  cell{angstrom}
       O -3.13474e+00  1.09754e+00  3.23786e-01
       H -2.96444e+00  2.18028e-01 -1.27609e-01
       H -2.59110e+00  1.13738e+00  1.15238e+00
       H -4.07137e+00  1.29350e+00  5.21298e-01
4
# CELL(abcABC): 1000.00000  1000.00000  1000.00000    90.00000    90.00000    90.00000  Step:          70  Bead:       0 positions{angstrom}  cell{angstrom}
       O -3.13534e+00  1.09766e+00  3.23356e-01
       H -2.96407e+00  2.31043e-01 -1.12881e-01
       H -2.58886e+00  1.12708e+00  1.14294e+00
       H -4.06447e+00  1.28891e+00  5.22839e-01
4
# CELL(abcABC): 1000.00000  1000.00000  1000.00000    90.00000    90.00000    90.00000  Step:          71  Bead:       0 positions{angstrom}  cell{angstrom}
       O -3.13571e+00  1.09782e+00  3.23023e-01
       H -2.96541e+00  2.43622e-01 -9.97859e-02
       H -2.58737e+00  1.11670e+00  1.13290e+00
       H -4.05873e+00  1.28418e+00  5.25068e-01
4
# CELL(abcABC): 1000.00000  1000.00000  1000.00000    90.00000    90.00000    90.00000  Step:          72  Bead:       0 positions{angstrom}  cell{angstrom}
       O -3.13594e+00  1.09792e+00  3.22676e-01
       H -2.96719e+00  2.55274e-01 -8.77401e-02
       H -2.58560e+00  1.10726e+00  1.12424e+00
       H -4.05508e+00  1.28035e+00  5.27188e-01
4
# CELL(abcABC): 1000.00000  1000.00000  1000.00000    90.00000    90.00000    90.00000  Step:          73  Bead:       0 positions{angstrom}  cell{angstrom}
       O -3.13596e+00  1.09819e+00  3.22450e-01
       H -2.96967e+00  2.63659e-01 -7.82519e-02
       H -2.58346e+00  1.09924e+00  1.11692e+00
       H -4.05450e+00  1.27573e+00  5.28591e-01
4
# CELL(abcABC): 1000.00000  1000.00000  1000.00000    90.00000    90.00000    90.00000  Step:          74  Bead:       0 positions{angstrom}  cell{angstrom}
       O -3.13585e+00  1.09861e+00  3.22449e-01
       H -2.97217e+00  2.67440e-01 -7.33340e-02
       H -2.58073e+00  1.09250e+00  1.11035e+00
       H -4.05636e+00  1.27200e+00  5.30272e-01
4
# CELL(abcABC): 1000.00000  1000.00000  1000.00000    90.00000    90.00000    90.00000  Step:          75  Bead:       0 positions{angstrom}  cell{angstrom}
       O -3.13547e+00  1.09932e+00  3.22512e-01
       H -2.97540e+00  2.64761e-01 -7.26818e-02
       H -2.57783e+00  1.08655e+00  1.10692e+00
       H -4.06207e+00  1.26936e+00  5.32046e-01
4
# CELL(abcABC): 1000.00000  1000.00000  1000.00000    90.00000    90.00000    90.00000  Step:          76  Bead:       0 positions{angstrom}  cell{angstrom}
       O -3.13509e+00  1.10014e+00  3.22498e-01
       H -2.97809e+00  2.57124e-01 -7.45243e-02
       H -2.57434e+00  1.08210e+00  1.10619e+00
       H -4.06897e+00  1.26848e+00  5.34841e-01
4
# CELL(abcABC): 1000.00000  1000.00000  1000.00000    90.00000    90.00000    90.00000  Step:          77  Bead:       0 positions{angstrom}  cell{angstrom}
       O -3.13456e+00  1.10110e+00  3.22472e-01
       H -2.98135e+00  2.46221e-01 -7.93870e-02
       H -2.57073e+00  1.07938e+00  1.10858e+00
       H -4.07765e+00  1.26687e+00  5.37724e-01
4
# CELL(abcABC): 1000.00000  1000.00000  1000.00000    90.00000    90.00000    90.00000  Step:          78  Bead:       0 positions{angstrom}  cell{angstrom}
       O -3.13395e+00  1.10216e+00  3.22619e-01
       H -2.98649e+00  2.31976e-01 -8.74140e-02
       H -2.56603e+00  1.07865e+00  1.11285e+00
       H -4.08698e+00  1.26496e+00  5.39162e-01
4
# CELL(abcABC): 1000.00000  1000.00000  1000.00000    90.00000    90.00000    90.00000  Step:          79  Bead:       0 positions{angstrom}  cell{angstrom}
       O -3.13338e+00  1.10332e+00  3.22725e-01
       H -2.99320e+00  2.17442e-01 -9.54041e-02
       H -2.56011e+00  1.07829e+00  1.11845e+00
       H -4.09520e+00  1.26149e+00  5.39862e-01
4
# CELL(abcABC): 1000.00000  1000.00000  1000.00000    90.00000    90.00000    90.00000  Step:          80  Bead:       0 positions{angstrom}  cell{angstrom}
       O -3.13290e+00  1.10440e+00  3.22711e-01
       H -3.00058e+00  2.04066e-01 -1.03697e-01
       H -2.55428e+00  1.07876e+00  1.12589e+00
       H -4.10126e+00  1.25726e+00  5.40946e-01
4
# CELL(abcABC): 1000.00000  1000.00000  1000.00000    90.00000    90.00000    90.00000  Step:          81  Bead:       0 positions{angstrom}  cell{angstrom}
       O -3.13248e+00  1.10517e+00  3.22751e-01
       H -3.00694e+00  1.93868e-01 -1.12126e-01
       H -2.55001e+00  1.08205e+00  1.13346e+00
       H -4.10585e+00  1.25195e+00  5.41167e-01
4
# CELL(abcABC): 1000.00000  1000.00000  1000.00000    90.00000    90.00000    90.00000  Step:          82  Bead:       0 positions{angstrom}  cell{angstrom}
       O -3.13205e+00  1.10584e+00  3.22695e-01
       H -3.01363e+00  1.86460e-01 -1.18679e-01
       H -2.54681e+00  1.08500e+00  1.14017e+00
       H -4.10925e+00  1.24576e+00  5.41890e-01
4
# CELL(abcABC): 1000.00000  1000.00000  1000.00000    90.00000    90.00000    90.00000  Step:          83  Bead:       0 positions{angstrom}  cell{angstrom}
       O -3.13164e+00  1.10617e+00  3.22650e-01
       H -3.02117e+00  1.83548e-01 -1.23247e-01
       H -2.54542e+00  1.08910e+00  1.14549e+00
       H -4.10964e+00  1.23938e+00  5.41861e-01
4
# CELL(abcABC): 1000.00000  1000.00000  1000.00000    90.00000    90.00000    90.00000  Step:          84  Bead:       0 positions{angstrom}  cell{angstrom}
       O -3.13118e+00  1.10620e+00  3.22657e-01
       H -3.02837e+00  1.84254e-01 -1.27054e-01
       H -2.54708e+00  1.09405e+00  1.14883e+00
       H -4.10798e+00  1.23323e+00  5.42206e-01
4
# CELL(abcABC): 1000.00000  1000.00000  1000.00000    90.00000    90.00000    90.00000  Step:          85  Bead:       0 positions{angstrom}  cell{angstrom}