11135
# CELL(abcABC):   47.46614    47.46614    47.46614    90.00000    90.00000    90.00000  Step:        3000  Bead:       0 positions{angstrom}  cell{angstrom}
       C -6.77590e+00 -2.28114e+00  3.43440e-01
       H -6.80008e+00 -3.41358e+00  5.61942e-01
       H -7.68252e+00 -2.07730e+00 -2.32109e-01
       H -6.98599e+00 -1.84690e+00  1.35564e+00
       C -5.56478e+00 -1.63724e+00 -1.97252e-01
       O -4.52082e+00 -2.26343e+00 -3.50834e-01
       N -5.61598e+00 -3.75038e-01 -5.92827e-01
       H -6.47626e+00  1.26034e-01 -4.44315e-01
       C -4.43856e+00  3.06022e-01 -1.30689e+00
       H -4.00032e+00 -2.89000e-01 -2.04319e+00
       C -4.97077e+00  1.59440e+00 -1.98355e+00
       H -4.18463e+00  2.07187e+00 -2.50934e+00
       H -5.49110e+00  2.21557e+00 -1.21879e+00
       C -6.06718e+00  1.30982e+00 -2.96910e+00
       H -7.00600e+00  9.69860e-01 -2.46788e+00
       H -5.66407e+00  5.16997e-01 -3.56075e+00
       C -6.44989e+00  2.53770e+00 -3.77077e+00
       H -5.54644e+00  2.95925e+00 -4.20029e+00
       H -6.81117e+00  3.47320e+00 -3.14383e+00
       C -7.53669e+00  2.29133e+00 -4.74516e+00
       H -7.98938e+00  3.14951e+00 -5.10971e+00
       H -8.37195e+00  1.64353e+00 -4.33106e+00
       N -6.92396e+00  1.59414e+00 -5.96205e+00
       H -5.88226e+00  1.82655e+00 -6.06093e+00
       H -7.38838e+00  1.83047e+00 -6.86272e+00
       H -7.02317e+00  5.77836e-01 -5.88565e+00
       C -3.30102e+00  6.94474e-01 -3.31094e-01
       O -3.20123e+00  1.86415e+00 -3.71717e-02
       N -2.50213e+00 -2.47799e-01  2.35173e-01
       H -2.93659e+00 -1.17268e+00  2.57549e-01
       H -1.61309e+00 -7.65207e-02  6.52165e-01
       O -1.31619e+01 -3.05386e+00 -2.65292e+01
       H -1.38555e+01 -3.48388e+00 -2.59810e+01
       H -1.26982e+01 -3.81581e+00 -2.69130e+01
       O -2.50662e+01 -7.08628e+00 -6.87303e+00
       H -2.50511e+01 -7.30431e+00 -5.91187e+00
       H -2.48479e+01 -6.13421e+00 -6.84033e+00
       O  1.44785e+01 -1.40339e+01 -2.27951e-01
       H  1.40185e+01 -1.33489e+01  3.58361e-01
       H  1.46076e+01 -1.35338e+01 -1.12932e+00
       O -1.56141e+01 -1.30119e+01 -2.11303e+01
       H -1.48137e+01 -1.29746e+01 -2.05723e+01
       H -1.52629e+01 -1.31902e+01 -2.20177e+01
       O -6.91273e+00 -1.06348e+01 -1.89321e+01
       H -5.92396e+00 -1.06405e+01 -1.90158e+01
       H -7.04414e+00 -9.83652e+00 -1.84123e+01
       O  2.37849e+01 -2.50640e+01  2.76244e+01
       H  2.37689e+01 -2.46133e+01  2.84881e+01
       H  2.38991e+01 -2.43300e+01  2.69907e+01
       O -1.97570e+01 -1.13589e+01 -1.61138e+00
       H -2.01353e+01 -1.18354e+01 -8.37182e-01
       H -1.92649e+01 -1.06530e+01 -1.15112e+00
       O  1.86159e+01 -2.49689e+01 -2.09634e+01
       H  1.88851e+01 -2.49066e+01 -2.19292e+01
       H  1.94084e+01 -2.54152e+01 -2.06465e+01
       O -1.10514e+01 -1.78897e+01 -2.69142e+00
       H -1.19458e+01 -1.82129e+01 -3.05694e+00
       H -1.07990e+01 -1.70674e+01 -3.12375e+00
       O  1.79052e+01 -1.89594e+01 -2.74114e+00
       H  1.74929e+01 -1.98330e+01 -3.00378e+00
       H  1.79384e+01 -1.85541e+01 -3.61391e+00
       O -3.24484e+01 -1.33468e+01 -2.72827e+00
       H -3.22581e+01 -1.39209e+01 -3.49923e+00
       H -3.34339e+01 -1.31756e+01 -2.88676e+00
       O  9.76500e+00 -2.82467e+01 -7.19710e+00
       H  9.60957e+00 -2.85857e+01 -8.10059e+00
       H  8.97245e+00 -2.78738e+01 -6.91008e+00
       O  6.71646e+00  1.46573e+01 -1.03140e+01
       H  5.91738e+00  1.51467e+01 -1.05392e+01
       H  6.64717e+00  1.46529e+01 -9.34727e+00
       O -3.98305e+01 -1.22595e+01 -6.66084e+00
       H -4.06386e+01 -1.28101e+01 -6.67658e+00
       H -4.02188e+01 -1.14306e+01 -6.97681e+00
       O  3.27180e-01 -2.30187e+01 -2.95214e+01
       H -3.02601e-01 -2.27628e+01 -3.01648e+01
       H -2.11016e-01 -2.29423e+01 -2.86724e+01
       O  5.63896e-02 -9.09283e+00 -9.56542e+00
       H  4.55492e-01 -8.87236e+00 -1.04450e+01
       H  7.62051e-01 -9.07694e+00 -8.87795e+00
       O -6.31755e+00 -1.64010e+01 -8.12245e-01
       H -5.72534e+00 -1.65333e+01 -1.56969e+00
       H -7.03760e+00 -1.70695e+01 -8.10109e-01
       O -4.40901e-01 -1.53290e+01 -2.79893e+01
       H -2.69267e-02 -1.55252e+01 -2.88658e+01
       H -1.13271e+00 -1.46617e+01 -2.83096e+01
       O -7.78703e+00 -1.93421e+01 -1.23996e+01
       H -8.56155e+00 -1.91503e+01 -1.29482e+01
       H -7.73304e+00 -1.85257e+01 -1.19079e+01
       O -6.94962e+00  1.78946e+01  4.12652e+00
       H -6.20824e+00  1.72994e+01  3.83540e+00
       H -6.89174e+00  1.86365e+01  3.46407e+00
       O -2.72812e+01 -8.53284e+00 -3.22287e+00
       H -2.68847e+01 -7.95015e+00 -3.85583e+00
       H -2.81714e+01 -8.23892e+00 -3.43293e+00
       O -2.89944e+01 -3.85211e+00 -6.20706e+00
       H -2.98674e+01 -3.70633e+00 -5.73396e+00
       H -2.92663e+01 -3.74634e+00 -7.10775e+00
       O  2.81073e+01 -1.52897e+01 -2.24445e+01
       H  2.73024e+01 -1.55326e+01 -2.20391e+01
       H  2.79387e+01 -1.43547e+01 -2.26972e+01
       O -1.96613e+01 -1.18209e+01 -1.38202e+01
       H -1.94731e+01 -1.12832e+01 -1.45216e+01
       H -1.87745e+01 -1.20453e+01 -1.34958e+01
       O -5.96130e+00 -2.26215e+01 -1.66964e+01
       H -5.39211e+00 -2.28932e+01 -1.59697e+01
       H -6.42193e+00 -2.18864e+01 -1.63128e+01
       O -1.99023e+01 -1.34775e+01  2.77986e+01
       H -1.94396e+01 -1.27895e+01  2.72223e+01
       H -2.08252e+01 -1.32947e+01  2.75699e+01
       O -2.11060e+00 -4.27429e+01 -2.01408e+01
       H -2.89280e+00 -4.26238e+01 -1.95946e+01
       H -1.58845e+00 -4.32860e+01 -1.94833e+01
       O -4.18912e-01 -3.62512e+00  1.74117e+01
       H -5.18834e-01 -3.05604e+00  1.81853e+01
       H  4.12902e-01 -3.21685e+00  1.71086e+01
       O -1.42256e+01  3.75659e+00 -4.40574e+00
       H -1.40090e+01  3.03409e+00 -5.07782e+00
       H -1.33754e+01  4.29705e+00 -4.42679e+00
       O -2.01666e+01 -3.96938e+00  2.55641e+01
       H -1.93394e+01 -4.27510e+00  2.52349e+01
       H -2.04399e+01 -3.30302e+00  2.49156e+01
       O -1.87662e+01 -1.31004e+01 -1.71623e+01
       H -1.94818e+01 -1.24255e+01 -1.71896e+01
       H -1.89266e+01 -1.35616e+01 -1.80226e+01
       O  1.28249e+00 -1.12232e+01 -2.25217e+01
       H  4.82753e-01 -1.17494e+01 -2.23294e+01
       H  1.47227e+00 -1.15540e+01 -2.34192e+01
       O  1.82105e-01 -1.16094e+01 -2.89112e+01
       H -6.75044e-01 -1.20549e+01 -2.90042e+01
       H  3.15257e-01 -1.17165e+01 -2.79577e+01
       O -1.29789e+00 -2.37512e+01  4.78930e+00
       H -7.88362e-01 -2.36525e+01  5.62642e+00
       H -2.09055e+00 -2.42770e+01  5.10807e+00
       O -2.19758e+01 -1.65756e+01 -1.25598e+01
       H -2.17103e+01 -1.56321e+01 -1.25691e+01
       H -2.10993e+01 -1.69561e+01 -1.27115e+01
       O -2.81078e+01 -2.42441e+01  1.84407e+01
       H -2.88506e+01 -2.36826e+01  1.86493e+01
       H -2.78482e+01 -2.46102e+01  1.93092e+01
       O -1.54916e+01 -2.33982e+01 -5.70151e+00
       H -1.51005e+01 -2.43299e+01 -5.88655e+00
       H -1.64166e+01 -2.35191e+01 -6.09712e+00
       O -1.57479e+00 -4.35669e+00 -3.70075e+01
       H -2.37519e+00 -4.16734e+00 -3.75772e+01
       H -8.59214e-01 -4.38051e+00 -3.77421e+01
       O -7.92089e+00  4.39245e+00 -1.22282e+01
       H -8.04900e+00  3.44330e+00 -1.23402e+01
       H -7.21762e+00  4.39373e+00 -1.15155e+01
       O -9.25327e+00 -2.38782e+01 -1.53527e+01
       H -9.28940e+00 -2.30102e+01 -1.58620e+01
       H -8.69625e+00 -2.37134e+01 -1.45606e+01
       O  1.45380e+01 -2.25859e+01 -1.28935e+01
       H  1.38326e+01 -2.29030e+01 -1.34774e+01
       H  1.39875e+01 -2.19200e+01 -1.24400e+01
       O -1.01258e+01 -3.71393e+00 -3.70970e+01
       H -1.10964e+01 -3.80487e+00  1.05121e+01
       H -9.84830e+00 -3.11757e+00 -3.63481e+01
       O  1.57775e+01 -2.74379e+01 -1.45542e+01
       H  1.58006e+01 -2.64597e+01 -1.44066e+01
       H  1.62046e+01 -2.74972e+01 -1.54470e+01
       O -2.15920e+01 -9.80294e+00 -2.27615e+01
       H -2.15812e+01 -9.07419e+00 -2.21326e+01
       H -2.25234e+01 -1.01129e+01 -2.27752e+01
       O -2.48762e+01 -2.39116e+01 -1.49527e+01
       H -2.39494e+01 -2.42378e+01 -1.48634e+01
       H -2.52079e+01 -2.46384e+01 -1.55690e+01
       O -1.26004e+00 -1.26293e+01  9.36444e+00
       H -4.57108e-01 -1.27993e+01  9.92618e+00
       H -1.77131e+00 -1.34140e+01  9.50208e+00
       O -1.31571e+01 -1.59740e+01  1.56520e+00
       H -1.26318e+01 -1.63023e+01  2.29380e+00
       H -1.37328e+01 -1.53272e+01  2.03665e+00
       O  5.17399e+00 -1.56363e+01 -1.27176e+01
       H  4.37826e+00 -1.52454e+01 -1.31868e+01
       H  5.31468e+00 -1.63446e+01 -1.33677e+01
       O  8.46757e+00 -7.24123e+00 -1.65611e+01
       H  8.40504e+00 -7.13146e+00 -1.75405e+01
       H  9.39389e+00 -7.31939e+00 -1.65448e+01
       O -2.29119e+01  2.66612e+00 -1.14926e+01
       H -2.24138e+01  2.95355e+00 -1.22677e+01
       H -2.35545e+01  1.96962e+00 -1.18166e+01
       O -1.31131e+01 -7.56435e+00 -2.68410e+01
       H -1.32339e+01 -8.44462e+00 -2.72877e+01
       H -1.38218e+01 -7.01378e+00 -2.73598e+01
       O -1.47862e+01 -1.37120e+01 -2.57047e+01
       H -1.56991e+01 -1.39277e+01 -2.55650e+01
       H -1.44947e+01 -1.36768e+01 -2.47765e+01
       O -7.04934e+00 -1.23268e+01 -2.66997e+01
       H -7.15464e+00 -1.13729e+01 -2.64556e+01
       H -7.35277e+00 -1.27039e+01 -2.58445e+01
       O -1.25343e+01 -1.84793e+00 -8.72429e+00
       H -1.33195e+01 -1.65165e+00 -8.16092e+00
       H -1.26162e+01 -2.80488e+00 -8.72369e+00
       O  5.47892e+00 -1.13189e+01 -1.83138e+01
       H  5.24327e+00 -1.12661e+01 -1.92491e+01
       H  5.07939e+00 -1.21438e+01 -1.80423e+01
       O -1.40051e+01 -1.14857e+01  7.59518e+00
       H -1.48815e+01 -1.18662e+01  7.44320e+00
       H -1.41225e+01 -1.05855e+01  7.23459e+00
       O -1.97611e+01 -2.41400e+00  8.10735e-01
       H -1.98672e+01 -3.29926e+00  2.63768e-01
       H -2.02444e+01 -2.68059e+00  1.60872e+00
       O -3.89560e-01 -1.35889e+01 -2.25518e+01
       H -3.90719e-01 -1.41585e+01 -2.33077e+01
       H -1.29854e+00 -1.34728e+01 -2.24427e+01
       O -4.38344e+00 -1.99704e+01 -1.27331e+01
       H -4.08181e+00 -2.06000e+01 -1.34306e+01
       H -4.51305e+00 -1.91648e+01 -1.32861e+01
       O  2.89494e+00  2.95021e+01  5.61458e+00
       H  2.53392e+00  3.03536e+01  5.57302e+00
       H  2.78867e+00  2.91454e+01  4.74048e+00
       O -8.73588e+00 -4.03820e+00 -3.36854e+01
       H -8.36313e+00 -4.40935e+00 -3.28627e+01
       H -9.58268e+00 -4.51531e+00 -3.38153e+01
       O -7.08066e+00  2.28686e+01  1.84316e+00
       H -7.84531e+00  2.23082e+01  2.09207e+00
       H -7.44250e+00  2.37251e+01  1.73564e+00
       O -6.37884e-01 -5.67746e+00 -9.18835e+00
       H  1.71732e-01 -6.01352e+00 -8.76221e+00
       H -3.59184e-01 -5.52431e+00 -1.01207e+01
       O  4.43296e+00 -1.11477e+01 -1.90205e+00
       H  4.06013e+00 -1.20537e+01 -1.74245e+00
       H  4.10615e+00 -1.07134e+01 -1.12235e+00
       O -1.17928e+00 -8.23642e+00  4.22970e+00
       H -1.41520e+00 -9.16972e+00  4.24952e+00
       H -1.66963e+00 -7.99850e+00  3.39143e+00
       O -1.84113e+01 -1.28038e+00  1.55150e+01
       H -1.81099e+01 -2.03061e+00  1.50189e+01
       H -1.77714e+01 -6.28715e-01  1.51603e+01
       O -2.05849e+01 -8.73186e+00 -9.00780e+00
       H -2.12524e+01 -8.64709e+00 -8.27104e+00
       H -2.01381e+01 -7.87115e+00 -8.86979e+00
       O  7.51259e+00 -9.91385e+00 -1.22151e+01
       H  6.74855e+00 -1.01440e+01 -1.16251e+01
       H  8.24346e+00 -1.05265e+01 -1.19515e+01
       O -1.20703e+01 -2.32575e+01 -8.89087e+00
       H -1.15684e+01 -2.33400e+01 -8.08245e+00
       H -1.24881e+01 -2.23627e+01 -8.68644e+00
       O -3.70064e+01 -2.60013e+01  2.58164e+01
       H -3.62971e+01 -2.55952e+01  2.52204e+01
       H -3.64905e+01 -2.67582e+01  2.62169e+01
       O  2.15935e+01  2.84933e+01  2.39349e+01
       H  2.19728e+01  2.80140e+01  2.31727e+01
       H  2.08373e+01  2.80020e+01  2.42584e+01
       O -7.85622e-01 -9.54341e+00 -1.63499e+01
       H -6.35981e-01 -9.96630e+00 -1.54054e+01
       H -3.44832e-01 -8.69154e+00 -1.62359e+01
       O -7.17851e+00 -1.43556e+01 -9.42988e+00
       H -7.53750e+00 -1.39597e+01 -8.59023e+00
       H -7.56922e+00 -1.52395e+01 -9.25362e+00
       O -1.67386e+01 -2.94576e+00  7.15152e+00
       H -1.60257e+01 -2.34426e+00  6.78878e+00
       H -1.68824e+01 -3.69485e+00  6.46323e+00
       O -1.29442e+01 -1.74694e+01 -2.66347e+01
       H -1.35156e+01 -1.67966e+01 -2.70993e+01
       H -1.32218e+01 -1.72419e+01 -2.57271e+01
       O -1.32308e+01 -1.92711e+01 -2.34032e+01
       H -1.26983e+01 -1.84567e+01 -2.33731e+01
       H -1.25803e+01 -1.99585e+01 -2.32528e+01
       O -6.16374e+00 -1.14680e+01 -1.30206e+01
       H -6.44206e+00 -1.10552e+01 -1.38230e+01
       H -5.26720e+00 -1.11426e+01 -1.28773e+01
       O -1.30464e+01 -1.51255e+01 -1.83506e+01
       H -1.28363e+01 -1.49727e+01 -1.73751e+01
       H -1.22984e+01 -1.57620e+01 -1.84819e+01
       O -1.40293e+01 -2.29604e+01 -1.24722e+01
       H -1.49094e+01 -2.33731e+01 -1.23756e+01
       H -1.41793e+01 -2.23760e+01 -1.31710e+01
       O -1.21605e+01 -2.00184e+01 -1.49206e+01
       H -1.26890e+01 -1.92353e+01 -1.49366e+01
       H -1.28503e+01 -2.06664e+01 -1.49458e+01
       O -6.71323e+00 -1.66154e+01 -1.12195e+01
       H -5.86308e+00 -1.68402e+01 -1.09768e+01
       H -6.84552e+00 -1.57890e+01 -1.07708e+01
       O  2.41868e+01 -1.82147e+01 -1.02130e+01
       H  2.37753e+01 -1.80455e+01 -9.34375e+00
       H  2.47419e+01 -1.74233e+01 -1.02161e+01
       O -6.68914e+00 -2.80380e+01 -8.52504e-01
       H -7.36954e+00 -2.87294e+01 -8.62051e-01
       H -5.94647e+00 -2.84357e+01 -1.40967e+00
       O -1.63756e+01 -2.40265e+01  7.82042e+00
       H -1.70194e+01 -2.41501e+01  7.13586e+00
       H -1.56839e+01 -2.45461e+01  7.37152e+00
       O -1.39453e+01 -6.99304e+00  7.10203e-01
       H -1.40522e+01 -6.06267e+00  3.61423e-01
       H -1.46279e+01 -7.52252e+00  2.29626e-01
       O -1.28449e+01  3.93307e+00 -1.75879e+01
       H -1.32231e+01  4.33210e+00 -1.83806e+01
       H -1.35006e+01  3.97459e+00 -1.68866e+01
       O  2.77140e+01 -1.23511e+01  2.65935e+00
       H  2.81764e+01 -1.31830e+01  2.42393e+00
       H  2.73549e+01 -1.24777e+01  3.49941e+00
       O  1.70098e+01 -1.60378e+01 -2.13103e+01
       H  1.68986e+01 -1.68043e+01 -2.20039e+01
       H  1.72123e+01 -1.52949e+01 -2.18311e+01
       O  5.16730e+00 -2.74108e+01 -4.55935e+00
       H  4.31957e+00 -2.70051e+01 -4.35195e+00
       H  4.88699e+00 -2.82515e+01 -5.10794e+00
       O -2.23972e+01 -1.27841e+01 -2.02801e+01
       H -2.23866e+01 -1.18832e+01 -1.98671e+01
       H -2.33530e+01 -1.29365e+01 -2.04715e+01
       O -3.62421e+00 -1.01014e+01 -1.21601e+01
       H -2.81598e+00 -9.58984e+00 -1.25317e+01
       H -3.08770e+00 -1.06120e+01 -1.15216e+01
       O -3.16540e+00 -6.37679e+00 -1.08481e+01
       H -3.16722e+00 -7.30072e+00 -1.06145e+01
       H -2.26903e+00 -6.22725e+00 -1.07337e+01
       O -7.45771e+00 -4.07812e+00 -2.61707e+00
       H -8.37622e+00 -3.73540e+00 -2.62255e+00
       H -7.17380e+00 -3.74524e+00 -3.49540e+00
       O -1.03947e+01  1.35721e+01 -9.13989e+00
       H -9.86450e+00  1.29086e+01 -9.64835e+00
       H -1.03683e+01  1.44120e+01 -9.63563e+00
       O -1.04307e+00 -5.96780e+00 -2.85022e+01
       H -8.81014e-01 -5.25607e+00 -2.91402e+01
       H -1.68774e+00 -6.50057e+00 -2.89429e+01
       O -2.43347e+01 -9.94663e+00  2.53281e+01
       H -2.44997e+01 -1.01077e+01  2.62435e+01
       H -2.46663e+01 -9.04147e+00  2.53158e+01
       O  2.21825e+01 -1.35262e+01  4.14956e+01
       H  2.14017e+01 -1.29840e+01  4.14253e+01
       H  2.26313e+01 -1.29827e+01  4.21181e+01
       O -1.10989e+01 -4.74591e+00 -1.83194e+01
       H -1.15813e+01 -5.31096e+00 -1.89910e+01
       H -1.02177e+01 -4.94092e+00 -1.86374e+01
       O -1.61804e+01 -1.39315e+01 -1.73630e+01
       H -1.69966e+01 -1.34500e+01 -1.71787e+01
       H -1.64095e+01 -1.44229e+01 -1.81446e+01
       O -2.40135e+01 -7.69202e+00  3.01184e+01
       H -2.46432e+01 -7.86025e+00  3.08501e+01
       H -2.45803e+01 -7.65697e+00  2.93805e+01
       O -1.12066e+01 -1.40898e+01 -2.73611e+01
       H -1.07108e+01 -1.49088e+01 -2.71461e+01
       H -1.20201e+01 -1.44600e+01 -2.77036e+01
       O -8.48510e+00 -1.59239e+01 -2.05714e+01
       H -8.10503e+00 -1.62645e+01 -2.14598e+01
       H -7.70835e+00 -1.53533e+01 -2.03258e+01
       O -1.04392e+01  1.96176e+01 -1.29348e+00
       H -9.79548e+00  2.03213e+01 -1.16655e+00
       H -1.10310e+01  2.01378e+01 -1.80436e+00
       O -1.49559e+01 -3.90145e+00 -3.45283e+00
       H -1.55678e+01 -3.65000e+00 -2.71792e+00
       H -1.54103e+01 -3.69705e+00 -4.27566e+00
       O -1.08596e+01 -6.47875e+00  1.75516e+00
       H -1.02005e+01 -6.12931e+00  1.15628e+00
       H -1.12134e+01 -5.69145e+00  2.18183e+00
       O -3.62120e+00 -2.31563e+01 -2.93422e+01
       H -3.05608e+00 -2.31682e+01 -2.85031e+01
       H -4.48202e+00 -2.27236e+01 -2.89977e+01
       O  9.75070e+00 -1.90309e+00 -8.38589e+00
       H  1.02184e+01 -1.39226e+00 -9.07173e+00
       H  9.04201e+00 -2.31211e+00 -8.84368e+00
       O -7.13505e+00 -3.14587e+00  1.67677e+01
       H -7.07550e+00 -2.65828e+00  1.76396e+01
       H -6.86955e+00 -4.04146e+00  1.71259e+01
       O  2.98222e+01 -2.09907e+01  1.87261e+01
       H  2.90906e+01 -2.03732e+01  1.86206e+01
       H  2.99400e+01 -2.13588e+01  1.77644e+01
       O -2.51900e+01 -1.31548e+01  8.01722e+00
       H -2.49653e+01 -1.28291e+01  7.11830e+00
       H -2.60880e+01 -1.34532e+01  7.91141e+00
       O -1.17049e+01  2.31411e+01 -1.13674e+01
       H -1.16012e+01  2.34990e+01 -1.04817e+01
       H -1.24720e+01  2.37200e+01 -1.16458e+01
       O -1.86748e+01 -9.95069e+00  1.50057e+01
       H -1.81115e+01 -9.44739e+00  1.55979e+01
       H -1.92808e+01 -9.38362e+00  1.46035e+01
       O  2.30884e+01 -2.77673e+01  1.14192e+01
       H  2.28338e+01 -2.76925e+01  1.23510e+01
       H  2.24891e+01 -2.71098e+01  1.09283e+01
       O  1.19680e+01 -3.22426e+01 -1.54620e+01
       H  1.15255e+01 -3.14900e+01 -1.49763e+01
       H  1.25015e+01 -3.17348e+01 -1.60785e+01
       O -4.40553e+00 -1.38617e+01 -2.48260e+00
       H -4.54210e+00 -1.35706e+01 -1.52341e+00
       H -5.00383e+00 -1.32712e+01 -3.02687e+00
       O  1.13490e+01 -1.56567e+01 -2.64171e+00
       H  1.12858e+01 -1.56500e+01 -1.67964e+00
       H  1.22746e+01 -1.60305e+01 -2.68289e+00
       O -6.45621e+00  1.87307e+01 -2.18137e+01
       H -6.69083e+00  1.82858e+01  2.65517e+01
       H -7.00995e+00  1.95551e+01  2.57441e+01
       O  1.93223e+01 -2.00707e+01  2.50749e+01
       H  1.90994e+01 -1.98600e+01 -2.33560e+01
       H  1.88332e+01 -2.08958e+01 -2.22873e+01
       O  2.09326e+00  1.50350e+01  3.78069e+00
       H  2.05857e+00  1.41407e+01  3.39069e+00
       H  1.14023e+00  1.52750e+01  3.60535e+00
       O -1.22436e+01  2.01742e+01  1.85835e+01
       H -1.13497e+01  1.98354e+01  1.87804e+01
       H -1.20312e+01  2.11314e+01  1.84948e+01
       O  2.67283e+01 -6.69834e+00  4.51156e+01
       H  2.76648e+01 -6.87571e+00  4.53835e+01
       H  2.63247e+01 -7.30726e+00  4.57357e+01
       O  1.61219e+01 -1.19627e+01 -1.88875e+01
       H  1.59021e+01 -1.10591e+01 -1.87315e+01
       H  1.64406e+01 -1.21781e+01 -1.79191e+01
       O -5.06477e+00 -1.45558e+01 -1.66053e+01
       H -5.79116e+00 -1.40824e+01 -1.70404e+01
       H -5.23306e+00 -1.55226e+01 -1.69163e+01
       O -6.03262e+00 -1.02668e+01  9.79884e-01
       H -6.52214e+00  3.68679e+01  1.75658e+00
       H -5.93160e+00 -9.34665e+00  1.35805e+00
       O  2.99601e+01 -3.81968e+00  2.47781e+01
       H  3.08644e+01 -4.09331e+00  2.49276e+01
       H  2.99272e+01 -2.95913e+00  2.51363e+01
       O -2.10740e+01  6.09607e+00 -3.34720e+00
       H -2.19810e+01  5.95769e+00 -3.18052e+00
       H -2.10006e+01  6.14087e+00 -4.28419e+00
       O  2.05538e+01 -6.62547e+00 -1.35633e+01
       H  2.01831e+01 -7.54695e+00 -1.35422e+01
       H  2.04544e+01 -6.56781e+00 -1.45217e+01
       O -1.30716e+01 -9.45011e+00  2.89424e+01
       H -1.35633e+01 -1.01887e+01  2.93422e+01
       H -1.24502e+01 -9.15056e+00  2.96468e+01
       O -1.61955e+01 -1.22658e+01  1.88520e+00
       H -1.56383e+01 -1.30490e+01  2.14242e+00
       H -1.55770e+01 -1.15048e+01  1.93638e+00
       O  3.78998e+00 -2.32741e+01 -1.16565e+01
       H  3.14125e+00 -2.26712e+01 -1.11651e+01
       H  3.73513e+00 -2.28995e+01 -1.26106e+01
       O -2.28639e+01 -8.73783e+00 -7.46266e+00
       H -2.35314e+01 -8.13495e+00 -7.12725e+00
       H -2.23740e+01 -8.85066e+00 -6.62678e+00
       O -1.40984e+01 -2.32771e+01  2.14439e+01
       H -1.48952e+01 -2.37533e+01  2.12413e+01
       H -1.40169e+01 -2.28355e+01  2.05923e+01
       O  5.79500e+00 -3.21816e+01  1.76013e-01
       H  5.97160e+00 -3.12555e+01  3.85389e-01
       H  6.59584e+00 -3.26834e+01  5.21740e-01
       O -1.03977e+01 -1.68077e+01  2.07649e+01
       H -9.94503e+00 -1.75105e+01  2.01545e+01
       H -1.13033e+01 -1.70885e+01  2.07168e+01
       O  3.33859e+00 -8.86210e+00 -1.57261e+01
       H  4.16638e+00 -8.53322e+00 -1.60736e+01
       H  3.21976e+00 -9.61489e+00 -1.63091e+01
       O -1.24544e+01 -1.34745e+01 -1.46664e+01
       H -1.23600e+01 -1.29229e+01 -1.54770e+01
       H -1.16025e+01 -1.32206e+01 -1.43283e+01
       O  1.77414e+01 -2.56780e+01 -1.24566e+01
       H  1.85200e+01 -2.52530e+01 -1.28261e+01
       H  1.81658e+01 -2.63748e+01 -1.18867e+01
       O -3.63746e+00 -1.92338e+01 -6.72843e+00
       H -4.33843e+00 -1.97261e+01 -7.13737e+00
       H -3.90597e+00 -1.92040e+01 -5.78301e+00
       O -2.09296e+01 -1.41278e+01 -1.17528e+01
       H -2.02392e+01 -1.44341e+01 -1.11265e+01
       H -2.03741e+01 -1.35717e+01 -1.23615e+01
       O  2.00807e+00 -2.44173e+01 -3.14946e+01
       H  1.32375e+00 -2.40315e+01 -3.08420e+01
       H  1.42889e+00 -2.48321e+01 -3.21184e+01
       O  1.50511e+01 -2.68705e+01 -2.40429e+01
       H  1.59291e+01 -2.66976e+01 -2.39191e+01
       H  1.48120e+01 -2.64809e+01 -2.31820e+01
       O  1.52472e+01  2.51961e+01  1.62397e+01
       H  1.44986e+01  2.53205e+01  1.68639e+01
       H  1.52686e+01  2.42381e+01  1.60706e+01
       O -1.01736e+01 -1.39384e+00 -1.00452e+01
       H -1.00037e+01 -2.27552e+00 -1.04297e+01
       H -1.11678e+01 -1.46017e+00 -9.75651e+00
       O -2.63396e+00 -4.18672e+01 -5.00091e+00
       H -1.76179e+00  5.86156e+00 -4.67646e+00
       H -2.37516e+00 -4.22303e+01 -5.90974e+00
       O -3.75753e+00 -1.86032e+01 -2.78952e+01
       H -4.72484e+00 -1.86250e+01 -2.82011e+01
       H -3.75939e+00 -1.77445e+01 -2.74102e+01
       O -1.53300e+01 -3.95023e+01  7.50594e+00
       H -1.46735e+01 -3.88024e+01  7.31634e+00
       H -1.54802e+01 -3.93632e+01  8.44378e+00
       O  3.83033e+00  4.08553e+00  1.36218e+00
       H  3.46689e+00  3.20046e+00  1.11167e+00
       H  4.06774e+00  4.46051e+00  5.06084e-01
       O -2.32137e+01 -4.97762e+00 -2.78049e+00
       H -2.25767e+01 -5.66318e+00 -2.44251e+00
       H -2.40070e+01 -5.10957e+00 -2.18221e+00
       O  3.14275e+01 -1.72780e+01  1.17124e+01
       H  3.13958e+01 -1.66941e+01  1.24637e+01
       H  3.07999e+01 -1.79821e+01  1.19612e+01
       O -9.28255e-01 -1.11798e+01  3.14017e+00
       H -1.64588e+00 -1.17162e+01  2.69397e+00
       H -1.33586e+00 -1.11450e+01  3.96179e+00
       O  1.43025e+01 -1.99982e+01 -5.53653e+00
       H  1.38237e+01 -2.00992e+01 -4.70632e+00
       H  1.52222e+01  2.74067e+01 -5.27331e+00
       O -1.24491e+01  2.28039e+01  1.95503e+00
       H -1.30327e+01  2.35469e+01  1.85051e+00
       H -1.16265e+01  2.32250e+01  1.73184e+00
       O -6.84766e+00 -8.46285e+00 -2.86121e+01
       H -6.78370e+00 -9.16657e+00 -2.92331e+01
       H -6.74856e+00 -9.00725e+00 -2.77416e+01
       O  2.58693e+01 -1.87023e+01  2.24501e+01
       H  2.55063e+01 -1.87355e+01  2.15537e+01
       H  2.53936e+01 -1.94128e+01  2.28409e+01
       O  2.99433e+00  7.13965e+00  1.28556e+00
       H  3.42205e+00  6.57559e+00  5.92405e-01
       H  3.44968e+00  8.00038e+00  1.13700e+00
       O  1.80032e+01 -1.42098e+01 -3.15821e+01
       H  1.82792e+01 -1.50429e+01 -3.20313e+01
       H  1.82640e+01 -1.44429e+01 -3.06290e+01
       O -7.83477e+00  2.65477e+01 -2.43819e+00
       H -7.72974e+00  2.55743e+01 -2.26232e+00
       H -8.81524e+00  2.66047e+01 -2.39337e+00
       O -5.22208e+00 -1.78817e+01 -2.48079e+01
       H -5.64412e+00 -1.83160e+01 -2.55430e+01
       H -5.61197e+00 -1.83052e+01 -2.40589e+01
       O  1.81208e+00 -2.23623e+00 -1.94192e+01
       H  1.44439e+00 -2.71660e+00 -1.86890e+01
       H  2.58634e+00 -2.72809e+00 -1.97429e+01
       O -5.50733e+00 -6.44266e+00  1.53686e+01
       H -5.92754e+00 -6.48739e+00  1.62656e+01
       H -6.14849e+00 -6.97014e+00  1.48961e+01
       O -8.29964e+00 -2.21128e+01 -2.69116e+01
       H -8.02562e+00 -2.17223e+01 -2.60365e+01
       H -8.61696e+00 -2.29751e+01 -2.66678e+01
       O  1.21839e+01 -5.52779e+00 -2.87977e+01
       H  1.31378e+01 -5.29485e+00 -2.89485e+01
       H  1.20633e+01 -5.33621e+00 -2.78854e+01
       O -8.48750e+00 -4.50353e+00  1.93371e+01
       H -8.72286e+00 -3.62263e+00  1.95018e+01
       H -9.31267e+00 -4.97847e+00  1.95787e+01
       O -9.84280e+00 -1.68924e+01 -1.15962e+01
       H -1.01310e+01 -1.76468e+01 -1.21230e+01
       H -1.07047e+01 -1.65200e+01 -1.12764e+01
       O -2.14760e+01 -1.57971e+01  2.63271e+01
       H -2.22735e+01 -1.62992e+01  2.66678e+01
       H -2.16344e+01 -1.49818e+01  2.67600e+01
       O  6.09693e+00 -1.02370e+01 -9.68550e+00
       H  5.28698e+00 -1.00068e+01 -9.98990e+00
       H  6.44492e+00 -9.33548e+00 -9.53853e+00
       O -6.46446e+00  4.05346e+00 -9.95116e+00
       H -5.59549e+00  3.92132e+00 -1.03654e+01
       H -6.22832e+00  4.77151e+00 -9.33691e+00
       O -6.12936e+00  2.25187e+00 -3.34910e+01
       H -5.66935e+00  1.75095e+00 -3.28694e+01
       H -5.66016e+00  3.11952e+00 -3.34229e+01
       O -1.18465e+00 -1.90264e+01 -1.44357e+01
       H -1.85259e+00 -1.96935e+01 -1.43455e+01
       H -4.28575e-01 -1.96555e+01 -1.44904e+01
       O -6.76648e+00 -9.75773e+00 -2.59453e+01
       H -5.98963e+00 -9.26060e+00 -2.57245e+01
       H -7.27138e+00 -9.74924e+00 -2.50270e+01
       O  1.32675e-01 -1.25962e+01 -2.62569e+01
       H -3.70031e-01 -1.33135e+01 -2.58410e+01
       H -3.62647e-01 -1.18602e+01 -2.58260e+01
       O -6.24154e+00  2.63966e+01 -1.10115e+01
       H -6.94884e+00  2.69708e+01 -1.13673e+01
       H -5.44987e+00  2.67676e+01 -1.14679e+01
       O -6.25864e+00 -2.11781e+01 -5.11529e+00
       H -6.93706e+00 -2.05092e+01 -5.22464e+00
       H -5.56360e+00 -2.06694e+01 -4.62192e+00
       O -1.59523e+00  8.06776e+00 -6.74773e+00
       H -2.49781e+00  8.51508e+00 -6.59304e+00
       H -1.27051e+00  7.88563e+00 -5.88830e+00
       O -5.20772e+00 -2.03011e+01 -2.30795e+01
       H -4.74556e+00 -1.98561e+01 -2.23599e+01
       H -5.37442e+00 -2.11166e+01 -2.26442e+01
       O -2.70361e+01 -1.51412e+01 -1.70170e+01
       H -2.74365e+01 -1.55367e+01 -1.78504e+01
       H -2.63759e+01 -1.57471e+01 -1.68044e+01
       O -1.63238e+01 -1.92173e+01 -1.37334e+01
       H -1.65002e+01 -1.90626e+01 -1.28133e+01
       H -1.54643e+01 -1.87632e+01 -1.37252e+01
       O  1.45758e+01  2.18244e+01 -9.76880e+00
       H  1.45981e+01  2.13375e+01 -1.05827e+01
       H  1.53266e+01  2.24221e+01 -9.96949e+00
       O -7.64515e+00  2.14187e+01 -2.33015e+01
       H -6.68514e+00  2.12509e+01 -2.34194e+01
       H -8.03528e+00  2.14537e+01 -2.41853e+01
       O  2.57234e+01 -3.02094e+01  1.59775e+01
       H  2.64743e+01 -2.98163e+01  1.64839e+01
       H  2.61939e+01 -3.07428e+01  1.53050e+01
       O  3.56466e+00 -6.98111e+00 -2.39743e+01
       H  3.56569e+00 -7.91131e+00 -2.41519e+01
       H  2.77442e+00 -6.75766e+00 -2.34695e+01
       O  1.49779e+01  3.19174e+01 -4.27645e+00
       H  1.44967e+01  3.22307e+01 -5.08190e+00
       H  1.59039e+01  3.17718e+01 -4.64960e+00
       O -2.12506e+01 -9.31370e+00 -5.34929e+00
       H -2.05355e+01 -9.97224e+00 -5.31927e+00
       H -2.08222e+01 -8.45802e+00 -5.43653e+00
       O -2.76537e+01 -1.41981e+00  4.21334e-01
       H -2.78064e+01 -1.60617e+00  1.35563e+00
       H -2.84879e+01 -1.00085e+00  2.31020e-01
       O -1.09995e+01 -9.27650e+00 -1.66571e+01
       H -1.02099e+01 -9.56480e+00 -1.61622e+01
       H -1.10235e+01 -8.37945e+00 -1.62586e+01
       O -9.14999e+00  9.18757e+00  1.74804e+01
       H -8.39331e+00  9.67741e+00  1.76682e+01
       H -8.83732e+00  8.53227e+00  1.68481e+01
       O  5.89188e+00  2.40814e+01 -4.90913e+00
       H  6.09475e+00 -2.36128e+01 -5.82830e+00
       H  6.53686e+00  2.48342e+01 -4.83108e+00
       O -1.88043e+01 -1.49379e+01 -9.99269e+00
       H -1.85446e+01 -1.57172e+01 -9.39438e+00
       H -1.79410e+01 -1.47522e+01 -1.02643e+01
       O -1.82816e+01  1.74365e+01 -1.05492e+01
       H -1.82587e+01  1.64812e+01 -1.07865e+01
       H -1.92198e+01  1.75200e+01 -1.07267e+01
       O -1.58335e+01 -1.15467e+01 -5.34940e+00
       H -1.61750e+01 -1.24645e+01 -5.10743e+00
       H -1.58102e+01 -1.15550e+01 -6.28207e+00
       O -8.64264e+00 -1.00649e+01 -1.53971e+01
       H -8.88259e+00 -9.82086e+00 -1.45267e+01
       H -7.71473e+00 -9.74467e+00 -1.53320e+01
       O -7.70049e+00 -1.72002e+01 -2.26751e+01
       H -8.16242e+00 -1.80702e+01 -2.27189e+01
       H -8.10991e+00 -1.67746e+01 -2.33890e+01
       O -8.80643e+00 -2.58288e+01 -1.78585e+01
       H -7.88896e+00 -2.54910e+01 -1.78671e+01
       H -8.85427e+00 -2.63442e+01 -1.70611e+01
       O  1.64875e+01 -9.70182e+00 -1.61831e+01
       H  1.58857e+01 -1.04700e+01 -1.61577e+01
       H  1.63335e+01 -9.43021e+00 -1.71248e+01
       O -9.10401e+00 -7.20771e+00 -2.66288e+01
       H -8.47373e+00 -7.72536e+00 -2.71140e+01
       H -8.45853e+00 -6.67034e+00 -2.60713e+01
       O -2.71695e+01 -6.31289e+00 -1.68549e+01
       H -2.71277e+01 -7.19313e+00 -1.64552e+01
       H -2.81269e+01 -6.28445e+00 -1.71402e+01
       O -9.27553e+00 -9.92212e+00 -2.50480e+00
       H -8.38574e+00 -1.00579e+01 -2.11205e+00