6
# CELL(abcABC): 1000.00000  1000.00000  1000.00000    90.00000    90.00000    90.00000  Step:         513  Bead:       0 positions{angstrom}  cell{angstrom}
       C -7.96001e-01  2.48534e+00 -4.05772e-01
       H -4.51377e-01  2.96130e+00 -1.32427e+00
       H  1.86272e-01  2.28976e+00  1.09023e-01
       H -1.41563e+00  1.63746e+00 -7.20356e-01
       O -1.47751e+00  3.47035e+00  3.33801e-01
       H -1.89110e+00  3.25073e+00  1.15858e+00
