11135
# CELL(abcABC):   47.46614    47.46614    47.46614    90.00000    90.00000    90.00000  Step:        3100  Bead:       0 positions{angstrom}  cell{angstrom}
       C -9.10829e+00 -1.41846e+00 -3.75090e+00
       H -9.91474e+00 -7.33695e-01 -3.53828e+00
       H -9.21945e+00 -2.26514e+00 -3.07222e+00
       H -9.20401e+00 -1.78252e+00 -4.81914e+00
       C -7.80496e+00 -7.59580e-01 -3.38892e+00
       O -6.91554e+00 -4.63752e-01 -4.25530e+00
       N -7.61545e+00 -4.32594e-01 -2.09946e+00
       H -8.29888e+00 -4.74063e-01 -1.39364e+00
       C -6.38918e+00  2.29224e-01 -1.63520e+00
       H -5.55839e+00  1.35881e-01 -2.33654e+00
       C -6.64256e+00  1.73255e+00 -1.54347e+00
       H -5.68128e+00  2.21245e+00 -1.09128e+00
       H -7.52293e+00  1.92063e+00 -9.19799e-01
       C -6.97924e+00  2.46209e+00 -2.84686e+00
       H -7.91116e+00  2.09522e+00 -3.15971e+00
       H -6.22156e+00  2.17632e+00 -3.62332e+00
       C -7.05378e+00  3.97688e+00 -2.76050e+00
       H -6.02423e+00  4.32023e+00 -2.56329e+00
       H -7.76159e+00  4.24080e+00 -2.00303e+00
       C -7.70506e+00  4.64246e+00 -3.94538e+00
       H -7.64521e+00  5.77298e+00 -3.79342e+00
       H -8.80804e+00  4.46568e+00 -3.92301e+00
       N -7.17859e+00  4.31526e+00 -5.29727e+00
       H -6.17415e+00  4.16813e+00 -5.25056e+00
       H -7.44101e+00  5.13175e+00 -6.03930e+00
       H -7.47872e+00  3.37446e+00 -5.61765e+00
       C -5.92936e+00 -3.23792e-01 -2.86407e-01
       O -5.97432e+00  3.30780e-01  7.74517e-01
       N -5.33089e+00 -1.59516e+00 -2.74237e-01
       H -4.87678e+00 -2.03570e+00 -1.09792e+00
       H -5.17266e+00 -1.98286e+00  6.45344e-01
       O -1.18408e+01 -1.30345e+01 -2.40980e+01
       H -1.11948e+01 -1.35561e+01 -2.45580e+01
       H -1.23674e+01 -1.37443e+01 -2.36501e+01
       O -2.17740e+01 -4.06226e+00 -8.09001e+00
       H -2.12521e+01 -3.33382e+00 -8.46269e+00
       H -2.10330e+01 -4.78715e+00 -8.04932e+00
       O  1.00974e+01 -1.48666e+01 -8.23760e-01
       H  9.79967e+00 -1.40590e+01 -4.62309e-01
       H  1.09205e+01 -1.49695e+01 -2.77551e-01
       O -2.56976e+01 -1.43284e+01 -2.52924e+01
       H -2.66720e+01 -1.43910e+01 -2.52414e+01
       H -2.55759e+01 -1.35010e+01 -2.58118e+01
       O -1.08047e+01 -1.47137e+01 -2.15041e+01
       H -1.05149e+01 -1.46795e+01 -2.24353e+01
       H -1.12098e+01 -1.38242e+01 -2.13235e+01
       O  2.18459e+01 -2.15928e+01  1.89253e+01
       H  2.19409e+01 -2.10683e+01  1.81301e+01
       H  2.28635e+01 -2.16877e+01  1.91478e+01
       O -1.93518e+01 -1.01369e+01 -8.09999e+00
       H -2.03108e+01 -1.00166e+01 -7.98961e+00
       H -1.90936e+01 -1.07790e+01 -7.37671e+00
       O  1.95032e+01 -2.54682e+01 -1.05628e+01
       H  1.95051e+01 -2.61279e+01 -9.87734e+00
       H  1.87783e+01 -2.56954e+01 -1.11678e+01
       O -1.28917e+01 -1.83251e+01 -5.28017e+00
       H -1.24288e+01 -1.85122e+01 -6.12811e+00
       H -1.26965e+01 -1.91766e+01 -4.88432e+00
       O  1.39855e+01 -1.94297e+01 -9.68208e+00
       H  1.36423e+01 -1.85589e+01 -9.78713e+00
       H  1.32766e+01 -1.97378e+01 -9.16298e+00
       O -3.15475e+01 -1.26268e+01 -1.98558e+00
       H -3.05777e+01 -1.25442e+01 -1.77035e+00
       H -3.15518e+01 -1.27596e+01 -2.93069e+00
       O  1.15310e+01 -2.94086e+01 -9.69053e+00
       H  1.17579e+01 -3.03280e+01 -9.70091e+00
       H  1.04927e+01 -2.95466e+01 -9.69167e+00
       O  1.57488e+01  2.06579e+01 -1.13270e+01
       H  1.64047e+01  2.05418e+01 -1.06076e+01
       H  1.53359e+01  2.14509e+01 -1.08912e+01
       O -3.76185e+01 -9.51073e+00 -7.22858e+00
       H -3.68728e+01 -1.01347e+01 -7.31124e+00
       H -3.73448e+01 -8.74650e+00 -6.70860e+00
       O -3.51874e+00 -2.21346e+01 -2.54984e+01
       H -3.27204e+00 -2.30078e+01 -2.58210e+01
       H -3.47486e+00 -2.23335e+01 -2.45095e+01
       O -1.27641e+00 -9.16702e+00 -9.26496e+00
       H -7.86009e-01 -8.71167e+00 -9.97440e+00
       H -2.20318e+00 -9.16654e+00 -9.55659e+00
       O -8.03358e+00 -1.21849e+01  2.34657e+00
       H -7.23854e+00 -1.21891e+01  2.88864e+00
       H -8.28383e+00 -1.31441e+01  2.31931e+00
       O  4.59330e-03 -1.52297e+01 -2.61184e+01
       H -5.23469e-01 -1.60128e+01 -2.64292e+01
       H  6.82564e-01 -1.57098e+01 -2.55454e+01
       O -3.46571e-01 -1.64504e+01 -1.35398e+01
       H  9.83099e-02 -1.67526e+01 -1.26859e+01
       H -6.57449e-01 -1.72285e+01 -1.40042e+01
       O -1.49388e+01  1.95195e+01  3.23140e+00
       H -1.44745e+01  1.89078e+01  2.59251e+00
       H -1.45352e+01  1.92826e+01  4.08488e+00
       O -2.59670e+01 -4.48047e-01 -9.19619e+00
       H -2.60009e+01 -8.71080e-01 -1.01289e+01
       H -2.52166e+01  1.30399e-01 -9.18633e+00
       O -2.32149e+01 -1.28740e+01 -8.51306e+00
       H -2.32477e+01 -1.25022e+01 -7.60617e+00
       H -2.39532e+01 -1.35159e+01 -8.31928e+00
       O  2.19782e+01 -1.59463e+01 -2.04047e+01
       H  2.11624e+01 -1.64003e+01 -2.01449e+01
       H  2.26637e+01 -1.66360e+01 -2.06175e+01
       O -1.70450e+01 -1.56031e+01 -1.52239e+01
       H -1.77795e+01 -1.53008e+01 -1.46561e+01
       H -1.71023e+01 -1.49231e+01 -1.59986e+01
       O -4.62809e+00 -2.17787e+01 -1.58087e+01
       H -3.88211e+00 -2.23282e+01 -1.61652e+01
       H -4.42589e+00 -2.09672e+01 -1.63135e+01
       O -1.79806e+01 -2.02884e+01  2.30398e+01
       H -1.88366e+01 -2.02666e+01  2.34928e+01
       H -1.77814e+01 -2.12525e+01  2.31758e+01
       O -7.56775e+00 -3.49284e+01 -1.79564e+01
       H -8.26779e+00 -3.48022e+01 -1.86570e+01
       H -8.02935e+00 -3.53560e+01 -1.71788e+01
       O -4.83305e+00 -1.31929e+00  1.93877e+01
       H -5.52254e+00 -2.01692e+00  1.95785e+01
       H -5.35442e+00 -6.91511e-01  1.88776e+01
       O -1.52755e+01  3.61058e-01  7.06704e-01
       H -1.61099e+01 -2.02434e-01  8.09087e-01
       H -1.47211e+01 -2.54895e-02  1.38395e+00
       O -2.69700e+01 -1.18114e+01  2.06004e+01
       H -2.68759e+01 -1.08671e+01  2.07562e+01
       H -2.78001e+01 -1.19329e+01  2.11124e+01
       O -1.81862e+01 -1.37512e+01 -2.42567e+01
       H -1.91217e+01 -1.37513e+01 -2.39549e+01
       H -1.79225e+01 -1.33480e+01 -2.34590e+01
       O  6.76182e+00 -9.50975e+00 -2.27321e+01
       H  7.60927e+00 -9.97128e+00 -2.26737e+01
       H  6.19058e+00 -1.02654e+01 -2.30143e+01
       O  4.34382e+00 -7.44684e+00 -3.05594e+01
       H  4.18985e+00 -6.58908e+00 -3.09800e+01
       H  3.67381e+00 -8.01722e+00 -3.10906e+01
       O -1.03484e+01 -1.48134e+01  8.51695e+00
       H -1.04111e+01 -1.56957e+01  8.13714e+00
       H -1.01131e+01 -1.50426e+01  9.41732e+00
       O -1.61451e+01 -1.68197e+01 -1.27150e+01
       H -1.63103e+01 -1.69420e+01 -1.36565e+01
       H -1.70430e+01 -1.68847e+01 -1.24447e+01
       O -2.49339e+01 -2.04465e+01  1.66314e+01
       H -2.45508e+01 -2.08542e+01  1.58856e+01
       H -2.42110e+01 -1.98605e+01  1.68677e+01
       O -1.63444e+01 -2.48016e+01 -6.90081e+00
       H -1.67248e+01 -2.41653e+01 -7.48482e+00
       H -1.60912e+01 -2.43162e+01 -6.10990e+00
       O -9.38790e+00 -6.48132e+00 -3.57327e+01
       H -8.92868e+00 -5.61364e+00 -3.60062e+01
       H -8.66186e+00 -7.12234e+00 -3.58450e+01
       O -1.21483e+01  6.42321e+00 -1.25472e+01
       H -1.18836e+01  7.34301e+00 -1.22820e+01
       H -1.23483e+01  5.91616e+00 -1.17031e+01
       O -4.73516e+00 -3.33961e+01 -1.77666e+01
       H -5.69090e+00 -3.33218e+01 -1.79377e+01
       H -4.63371e+00 -3.43853e+01 -1.75961e+01
       O  1.83174e+01 -1.86070e+01 -1.33424e+01
       H  1.89348e+01 -1.93705e+01 -1.34509e+01
       H  1.74402e+01 -1.90912e+01 -1.32344e+01
       O -1.53932e+01 -6.53624e+00 -3.75858e+01
       H -1.61877e+01 -5.99576e+00  1.00072e+01
       H -1.48960e+01 -6.01688e+00 -3.82503e+01
       O  1.99860e+01 -2.50655e+01 -7.20989e+00
       H  1.90136e+01 -2.51684e+01 -6.95819e+00
       H  2.02124e+01 -2.58962e+01 -7.73676e+00
       O -2.23345e+01 -1.07158e+01 -1.55410e+01
       H -2.19731e+01 -1.13704e+01 -1.50161e+01
       H -2.24082e+01 -1.12161e+01 -1.64152e+01
       O -2.28677e+01 -1.82094e+01 -1.71884e+01
       H -2.20523e+01 -1.85265e+01 -1.67514e+01
       H -2.24847e+01 -1.77394e+01 -1.80089e+01
       O  8.37523e-01 -1.21901e+01  9.29153e+00
       H  1.23454e+00 -1.20374e+01  1.01543e+01
       H  8.18196e-02 -1.14626e+01  9.27089e+00
       O -1.76718e+01 -1.63885e+01  1.02671e+00
       H -1.81670e+01 -1.68343e+01  2.79724e-01
       H -1.82011e+01 -1.55992e+01  1.03124e+00
       O  8.40948e-01 -1.40633e+01 -1.33085e+01
       H  3.57965e-01 -1.49331e+01 -1.35664e+01
       H  7.97727e-02 -1.36267e+01 -1.28718e+01
       O  5.90580e+00 -7.55573e+00 -1.87353e+01
       H  6.74886e+00 -7.63204e+00 -1.91787e+01
       H  5.67310e+00 -6.53658e+00 -1.88129e+01
       O -1.96921e+01 -3.43382e+00 -2.31051e+01
       H -1.90896e+01 -2.85589e+00 -2.35896e+01
       H -2.02620e+01 -3.72006e+00 -2.37696e+01
       O -1.64867e+01 -1.25147e+01 -2.88644e+01
       H -1.71788e+01 -1.21356e+01 -2.93593e+01
       H -1.66801e+01 -1.34615e+01 -2.89030e+01
       O -1.28385e+01 -1.54724e+01 -2.34992e+01
       H -1.30865e+01 -1.58643e+01 -2.44393e+01
       H -1.21306e+01 -1.61033e+01 -2.32620e+01
       O -9.30048e+00 -1.51038e+01 -2.79360e+01
       H -8.91745e+00 -1.52630e+01 -2.88674e+01
       H -9.73140e+00 -1.42675e+01 -2.81315e+01
       O -1.42867e+01  2.34670e+00 -1.05304e+01
       H -1.37966e+01  1.73460e+00 -9.92284e+00
       H -1.45612e+01  1.74018e+00 -1.11652e+01
       O  5.93057e+00 -5.55052e+00 -2.26485e+01
       H  5.60845e+00 -6.34178e+00 -2.22195e+01
       H  6.20861e+00 -5.94869e+00 -2.34941e+01
       O -1.86544e+01 -7.71602e+00  1.73033e+00
       H -1.77139e+01 -7.46540e+00  1.61031e+00
       H -1.87262e+01 -8.46564e+00  1.18833e+00
       O -1.61969e+01 -6.34727e+00 -1.37625e+00
       H -1.69436e+01 -5.68978e+00 -1.38986e+00
       H -1.66837e+01 -7.09736e+00 -1.05510e+00
       O -2.70000e+00 -1.39335e+01 -2.53224e+01
       H -2.72016e+00 -1.48739e+01 -2.56350e+01
       H -3.56386e+00 -1.38312e+01 -2.49510e+01
       O -7.27915e-01 -1.85157e+01 -1.70895e+01
       H -7.64793e-01 -1.94215e+01 -1.74160e+01
       H -5.84648e-01 -1.86443e+01 -1.61640e+01
       O -1.00002e+00  2.68415e+01  7.76912e+00
       H -7.48373e-02  2.67384e+01  8.09854e+00
       H -8.69585e-01  2.74481e+01  6.98339e+00
       O -1.07085e+01 -8.93768e+00 -3.14295e+01
       H -9.76745e+00 -8.87499e+00 -3.16694e+01
       H -1.06361e+01 -8.70523e+00 -3.04632e+01
       O -5.54778e+00  2.40734e+01  1.02322e+01
       H -5.45430e+00  2.36624e+01  9.36528e+00
       H -6.50572e+00  2.39515e+01  1.04575e+01
       O -9.79219e+00 -8.54768e+00 -8.94879e+00
       H -9.61905e+00 -9.20065e+00 -9.67410e+00
       H -9.81450e+00 -9.11792e+00 -8.14804e+00
       O  1.21718e+01 -1.68433e+01 -2.19180e+00
       H  1.16736e+01 -1.70482e+01 -3.01074e+00
       H  1.16257e+01 -1.61154e+01 -1.72821e+00
       O -1.26096e+01 -6.10832e+00  4.68774e+00
       H -1.16660e+01 -6.31575e+00  4.64299e+00
       H -1.30174e+01 -6.85562e+00  5.14181e+00
       O -1.45083e+01 -3.84474e+00  1.41026e+01
       H -1.46644e+01 -4.66753e+00  1.35735e+01
       H -1.53737e+01 -3.57365e+00  1.43884e+01
       O -2.73368e+01 -1.18884e+01 -6.66902e+00
       H -2.67906e+01 -1.26712e+01 -6.50802e+00
       H -2.69998e+01 -1.15608e+01 -7.45871e+00
       O  1.70452e+00 -1.01865e+01 -1.08452e+01
       H  9.33351e-01 -1.02248e+01 -1.14621e+01
       H  1.98956e+00 -1.11030e+01 -1.08851e+01
       O -1.77384e+01 -2.49138e+01 -1.27585e+01
       H -1.72562e+01 -2.51125e+01 -1.35591e+01
       H -1.73955e+01 -2.40684e+01 -1.25878e+01
       O -4.12713e+01 -2.55142e+01  3.00565e+01
       H -4.04563e+01 -2.55916e+01  2.96173e+01
       H -4.10855e+01 -2.59736e+01  3.08964e+01
       O  2.07016e+01  2.04786e+01  2.80973e+01
       H  2.15504e+01  2.06080e+01  2.76563e+01
       H  2.01025e+01  2.09749e+01  2.75308e+01
       O -9.16364e+00 -1.26746e+01 -1.56685e+01
       H -8.97354e+00 -1.35668e+01 -1.59457e+01
       H -8.49285e+00 -1.25351e+01 -1.49938e+01
       O -1.32810e+01 -9.82274e+00 -8.27928e+00
       H -1.41419e+01 -1.02435e+01 -8.35595e+00
       H -1.30410e+01 -9.81626e+00 -9.18821e+00
       O -1.76195e+01  1.23242e+00  5.62136e+00
       H -1.74030e+01  1.81610e+00  6.35007e+00
       H -1.84720e+01  7.94876e-01  5.87721e+00
       O -1.03969e+01 -1.69488e+01 -2.39499e+01
       H -9.91559e+00 -1.74668e+01 -2.33727e+01
       H -1.09377e+01 -1.76143e+01 -2.43706e+01
       O -2.14545e+01 -1.73645e+01 -2.21023e+01
       H -2.19049e+01 -1.77422e+01 -2.28280e+01
       H -2.06433e+01 -1.71548e+01 -2.26281e+01
       O -3.55453e+00 -9.61037e+00 -1.96516e+01
       H -4.45647e+00 -9.30330e+00 -1.99184e+01
       H -3.36213e+00 -8.98805e+00 -1.89345e+01
       O -1.52210e+01 -1.48571e+01 -2.24241e+01
       H -1.50877e+01 -1.43019e+01 -2.16551e+01
       H -1.43184e+01 -1.49410e+01 -2.27134e+01
       O -9.48598e+00 -2.44964e+01 -1.75760e+01
       H -1.01107e+01 -2.50612e+01 -1.80773e+01
       H -1.00969e+01 -2.37107e+01 -1.74387e+01
       O -1.91179e+01 -1.21140e+01 -6.18780e+00
       H -1.95707e+01 -1.29660e+01 -6.25652e+00
       H -1.84117e+01 -1.23187e+01 -5.57540e+00
       O -9.86971e+00 -1.78260e+01 -1.04816e+01
       H -1.01483e+01 -1.83860e+01 -1.12285e+01
       H -1.06732e+01 -1.73026e+01 -1.03273e+01
       O  2.29396e+01 -1.31280e+01 -1.32554e+01
       H  2.31679e+01 -1.38296e+01 -1.26869e+01
       H  2.34414e+01 -1.23670e+01 -1.28737e+01
       O -1.05861e+01 -2.52745e+01 -1.33180e+00
       H -1.01115e+01 -2.61078e+01 -1.35161e+00
       H -1.08583e+01 -2.52274e+01 -2.25949e+00
       O -1.75129e+01 -2.58946e+01  6.05391e+00
       H -1.67947e+01 -2.53985e+01  5.63670e+00
       H -1.78934e+01 -2.53096e+01  6.65841e+00
       O -1.83028e+01 -7.40081e+00 -3.87029e+00
       H -1.90258e+01 -6.75161e+00 -3.88797e+00
       H -1.82591e+01 -7.58263e+00 -4.83392e+00
       O -1.04814e+01  3.92575e+00 -1.55664e+01
       H -1.03806e+01  3.28331e+00 -1.63560e+01
       H -9.62710e+00  4.36013e+00 -1.54284e+01
       O  3.29034e+01 -1.45878e+01  6.06046e+00
       H  3.35027e+01 -1.39605e+01  5.48983e+00
       H  3.35290e+01 -1.46980e+01  6.79926e+00
       O  1.82887e+01 -1.75310e+01 -2.70165e+01
       H  1.91521e+01 -1.77981e+01 -2.71870e+01
       H  1.79164e+01 -1.74760e+01 -2.79160e+01
       O  5.71968e+00 -2.92668e+01 -2.68269e+00
       H  5.32857e+00 -3.01287e+01 -3.01615e+00
       H  5.44838e+00 -2.87212e+01 -3.44230e+00
       O -2.53643e+01 -1.80566e+01 -2.40975e+01
       H -2.51064e+01 -1.80503e+01 -2.31415e+01
       H -2.61455e+01 -1.86461e+01 -2.40152e+01
       O  2.55313e+00 -1.68726e+01 -1.07422e+01
       H  1.81944e+00 -1.62880e+01 -1.06499e+01
       H  2.57448e+00 -1.70776e+01 -9.80535e+00
       O  1.93771e+00 -8.04859e+00 -9.09242e+00
       H  1.72839e+00 -8.63699e+00 -9.83996e+00
       H  2.92962e+00 -8.26897e+00 -9.08859e+00
       O -8.77679e+00 -4.39058e+00 -1.09252e+01
       H -9.54443e+00 -4.64030e+00 -1.13850e+01
       H -8.57092e+00 -5.16641e+00 -1.03301e+01
       O -1.38594e+01  1.26217e+01 -1.32333e+01
       H -1.47722e+01  1.27480e+01 -1.30072e+01
       H -1.36678e+01  1.18078e+01 -1.27462e+01
       O -2.40405e-01 -9.94026e+00 -2.98494e+01
       H -6.92814e-01 -9.09280e+00 -2.98368e+01
       H -3.14430e-01 -1.03117e+01 -2.89250e+01
       O -2.31606e+01 -1.42984e+01  2.34623e+01
       H -2.40191e+01 -1.42162e+01  2.31032e+01
       H -2.33835e+01 -1.46586e+01  2.43945e+01
       O  2.13468e+01 -1.40929e+01  4.18518e+01
       H  2.20524e+01 -1.35461e+01  4.21507e+01
       H  2.16759e+01 -1.47973e+01  4.12461e+01
       O -1.23842e+01 -1.00770e+01 -1.93387e+01
       H -1.18994e+01 -9.49000e+00 -1.87717e+01
       H -1.32600e+01 -9.96110e+00 -1.89396e+01
       O -1.40020e+01 -1.50804e+01 -1.80097e+01
       H -1.44675e+01 -1.58944e+01 -1.78465e+01
       H -1.31152e+01 -1.53406e+01 -1.83394e+01
       O -2.24081e+01 -1.04535e+01  2.71826e+01
       H -2.21696e+01 -9.56844e+00  2.69823e+01
       H -2.32474e+01 -1.04818e+01  2.67129e+01
       O -8.26562e+00 -1.38769e+01 -2.06539e+01
       H -9.17016e+00 -1.43330e+01 -2.06780e+01
       H -8.46438e+00 -1.30991e+01 -2.00635e+01
       O -4.63059e+00 -1.73165e+01 -1.93549e+01
       H -5.16828e+00 -1.65853e+01 -1.96395e+01
       H -3.81612e+00 -1.68741e+01 -1.90685e+01
       O -1.14543e+01  2.62960e+01 -6.55914e+00
       H -1.06438e+01  2.67486e+01 -6.35208e+00
       H -1.15567e+01  2.64520e+01 -7.54123e+00
       O -1.13911e+01  2.19071e+00 -1.18841e+01
       H -1.18954e+01  1.64989e+00 -1.12245e+01
       H -1.12372e+01  3.02910e+00 -1.14581e+01
       O -9.78720e+00 -6.72953e+00  4.52865e-01
       H -9.55395e+00 -7.00493e+00 -4.65393e-01
       H -1.03866e+01 -7.39722e+00  8.74474e-01
       O -3.40189e+00 -1.72094e+01 -3.32326e+01
       H -3.76572e+00 -1.76593e+01 -3.40308e+01
       H -2.44767e+00 -1.75042e+01 -3.32728e+01
       O  1.31213e+01 -5.76371e+00 -1.21219e+01
       H  1.31158e+01 -5.34431e+00 -1.12897e+01
       H  1.32893e+01 -6.68648e+00 -1.18672e+01
       O -1.58555e+01 -1.07121e+01  2.04750e+01
       H -1.63238e+01 -9.85548e+00  2.01862e+01
       H -1.61620e+01 -1.13287e+01  1.98769e+01
       O  2.71808e+01 -1.76969e+01  1.58706e+01
       H  2.72047e+01 -1.69241e+01  1.64917e+01
       H  2.76870e+01 -1.72925e+01  1.51057e+01
       O -2.68494e+01 -6.50025e+00  1.51926e+01
       H -2.62505e+01 -5.74836e+00  1.56038e+01
       H -2.76488e+01 -6.27818e+00  1.56230e+01
       O -1.87888e+01  2.81086e+01 -1.34469e+01
       H -1.90308e+01  2.89099e+01 -1.28759e+01
       H -1.82965e+01  2.75554e+01 -1.28573e+01
       O -1.81618e+01 -9.78190e+00  1.48926e+01
       H -1.87850e+01 -9.77899e+00  1.41039e+01
       H -1.72775e+01 -9.71738e+00  1.45324e+01
       O  2.44625e+01 -2.51750e+01  1.30788e+01
       H  2.52573e+01 -2.46661e+01  1.33561e+01
       H  2.42364e+01 -2.45361e+01  1.23859e+01
       O  1.09756e+01 -2.60839e+01 -1.11899e+01
       H  1.06744e+01 -2.51869e+01 -1.14381e+01
       H  1.03050e+01 -2.65521e+01 -1.16850e+01
       O -7.27650e+00 -1.73021e+01 -4.44572e+00
       H -6.63516e+00 -1.73196e+01 -5.19502e+00
       H -7.27298e+00 -1.82422e+01 -4.21721e+00
       O  1.18917e+01 -2.10625e+01 -8.45354e+00
       H  1.21032e+01 -2.19716e+01 -8.41025e+00
       H  1.10514e+01 -2.11204e+01 -8.92413e+00
       O -1.07932e+01  1.59548e+01 -2.31475e+01
       H -1.02428e+01  1.55726e+01  2.50522e+01
       H -1.16009e+01  1.61289e+01  2.48825e+01
       O  1.87137e+01 -2.11361e+01  1.80419e+01
       H  1.93366e+01 -2.18396e+01 -2.91200e+01
       H  1.93728e+01 -2.04728e+01 -2.97652e+01
       O  3.68763e+00  1.58036e+01  5.81298e+00
       H  3.57412e+00  1.67166e+01  5.64789e+00
       H  4.68853e+00  1.58042e+01  5.74351e+00
       O -9.38282e+00  2.66893e+01  1.46594e+01
       H -8.73048e+00  2.60333e+01  1.43754e+01
       H -9.83489e+00  2.61024e+01  1.53162e+01
       O  2.05821e+01 -4.78197e+00  4.12055e+01
       H  2.01565e+01 -5.29353e+00  4.19988e+01
       H  2.10171e+01 -5.52797e+00  4.07528e+01
       O  1.27736e+01 -1.96226e+01 -1.54255e+01
       H  1.25709e+01 -1.86918e+01 -1.53695e+01
       H  1.19809e+01 -1.99512e+01 -1.50546e+01
       O -2.08512e+00 -1.62096e+01 -2.03202e+01
       H -2.43309e+00 -1.60514e+01 -2.12340e+01
       H -2.06577e+00 -1.71734e+01 -2.02848e+01
       O -8.89165e+00 -2.04655e+01 -5.45649e+00
       H -8.64471e+00  2.61101e+01 -5.83734e+00
       H -8.07737e+00 -2.02029e+01 -5.08677e+00
       O  3.66557e+01 -7.90591e-01  2.67844e+01
       H  3.70474e+01 -1.72413e+00  2.67216e+01
       H  3.59442e+01 -9.08461e-01  2.74500e+01
       O -2.62063e+01  8.44229e+00 -5.55885e+00
       H -2.58576e+01  7.58835e+00 -5.53939e+00
       H -2.55059e+01  8.92826e+00 -6.19244e+00
       O  2.10781e+01 -4.09724e+00 -1.33406e+01
       H  2.06564e+01 -4.91290e+00 -1.36470e+01
       H  2.19843e+01 -4.09953e+00 -1.39057e+01
       O -7.39747e+00 -2.19224e+01  2.66841e+01
       H -8.26454e+00 -2.16663e+01  2.70124e+01
       H -7.03733e+00 -2.10592e+01  2.63119e+01
       O -1.38188e+01 -7.42312e+00 -2.26635e+00
       H -1.39840e+01 -8.36614e+00 -2.19033e+00
       H -1.45435e+01 -7.09549e+00 -1.74154e+00
       O  2.42421e+00 -2.17201e+01 -1.15541e+01
       H  1.70549e+00 -2.13928e+01 -1.21619e+01
       H  2.21940e+00 -2.11417e+01 -1.07934e+01
       O -1.82623e+01 -1.18655e+01 -1.00492e+01
       H -1.88586e+01 -1.16913e+01 -1.08476e+01
       H -1.88235e+01 -1.14501e+01 -9.30229e+00
       O -1.99047e+01 -2.63694e+01  1.69556e+01
       H -2.06982e+01 -2.66789e+01  1.64570e+01
       H -2.02975e+01 -2.55939e+01  1.74350e+01
       O  5.60998e+00 -3.53666e+01  1.17867e+00
       H  6.07992e+00 -3.55789e+01  3.75080e-01
       H  4.97602e+00 -3.61057e+01  1.17656e+00
       O -7.14593e+00 -1.87950e+01  1.90631e+01
       H -8.09045e+00 -1.88761e+01  1.93779e+01
       H -6.61479e+00 -1.96518e+01  1.92100e+01
       O  2.33396e+00 -1.00317e-01 -8.69370e+00
       H  1.79087e+00 -5.65619e-01 -9.37085e+00
       H  1.78043e+00  6.13869e-01 -8.42870e+00
       O -1.47855e+01 -9.81001e+00 -1.78459e+01
       H -1.47856e+01 -9.12613e+00 -1.85279e+01
       H -1.53995e+01 -9.36066e+00 -1.71910e+01
       O  1.88183e+01 -2.51905e+01 -1.57258e+01
       H  1.91358e+01 -2.61203e+01 -1.58820e+01
       H  1.97271e+01 -2.47617e+01 -1.58120e+01
       O -1.14047e+01 -2.06179e+01 -9.28629e+00
       H -1.09724e+01 -2.09252e+01 -1.00786e+01
       H -1.22882e+01 -2.03528e+01 -9.60151e+00
       O -1.51219e+01 -1.38011e+01 -1.22430e+01
       H -1.44605e+01 -1.37723e+01 -1.29658e+01
       H -1.55650e+01 -1.46624e+01 -1.23617e+01
       O  4.08629e+00 -2.42005e+01 -2.81494e+01
       H  4.61206e+00 -2.46167e+01 -2.74613e+01
       H  3.65721e+00 -2.35330e+01 -2.75861e+01
       O  1.35911e+01 -2.89078e+01 -1.52926e+01
       H  1.45549e+01 -2.89257e+01 -1.51034e+01
       H  1.34623e+01 -2.81470e+01 -1.59043e+01
       O  1.66459e+01  2.18253e+01  1.18215e+01
       H  1.76498e+01  2.19201e+01  1.17837e+01
       H  1.63843e+01  2.22219e+01  1.26805e+01
       O -1.17008e+01 -4.55437e+00 -1.07304e+01
       H -1.20199e+01 -4.62991e+00 -1.15966e+01
       H -1.18052e+01 -5.50046e+00 -1.05506e+01
       O  4.39927e-02 -3.47739e+01 -4.16474e-02
       H  1.59202e-01  1.17338e+01  1.39762e-01
       H  8.62480e-01 -3.44725e+01  2.13338e-01
       O -6.99128e+00 -8.78343e+00 -2.30580e+01
       H -6.65031e+00 -8.81794e+00 -2.21329e+01
       H -6.19843e+00 -8.52906e+00 -2.35229e+01
       O -1.95281e+01 -3.88158e+01  1.21739e+01
       H -2.03223e+01 -3.87154e+01  1.27621e+01
       H -1.91910e+01 -3.78719e+01  1.20434e+01
       O  6.15629e-01  7.10842e+00 -2.88357e+00
       H  1.07028e+00  7.69857e+00 -2.18504e+00
       H -3.42299e-01  7.34880e+00 -2.81375e+00
       O -2.40971e+01 -5.61412e+00 -5.28522e+00
       H -2.39058e+01 -5.53301e+00 -4.35668e+00
       H -2.40701e+01 -4.64164e+00 -5.46437e+00
       O  2.97508e+01 -1.73786e+01  1.46364e+01
       H  3.04178e+01 -1.80190e+01  1.42892e+01
       H  2.95880e+01 -1.67604e+01  1.39177e+01
       O -9.15562e+00 -1.67814e+01 -2.55010e+00
       H -8.72701e+00 -1.68578e+01 -3.46018e+00
       H -1.00937e+01 -1.68134e+01 -2.70329e+00
       O  1.25821e+01 -1.71068e+01 -8.43948e+00
       H  1.26420e+01 -1.65644e+01 -9.20133e+00
       H  1.17449e+01  3.06610e+01 -8.01435e+00
       O -1.28681e+01  2.20698e+01  5.45236e+00
       H -1.24656e+01  2.30306e+01  5.62509e+00
       H -1.24495e+01  2.18065e+01  4.56943e+00
       O -3.85805e+00 -9.81143e+00 -2.93589e+01
       H -3.27884e+00 -9.16840e+00 -2.89105e+01
       H -3.60537e+00 -1.05807e+01 -2.87430e+01
       O  2.45371e+01 -1.19399e+01  2.96460e+01
       H  2.50363e+01 -1.18116e+01  2.88507e+01
       H  2.42252e+01 -1.28338e+01  2.94632e+01
       O  9.68218e+00  1.65097e+00  2.06973e-01
       H  9.68104e+00  8.27163e-01  7.83639e-01
       H  8.79275e+00  1.68620e+00 -9.48075e-02
       O  1.33732e+01 -1.13039e+01 -2.90659e+01
       H  1.41968e+01 -1.08849e+01 -2.94768e+01
       H  1.32002e+01 -1.05782e+01 -2.84510e+01
       O -1.04037e+01  2.17607e+01 -6.23967e+00
       H -1.11659e+01  2.22731e+01 -6.52797e+00
       H -1.02743e+01  2.11436e+01 -7.02179e+00
       O -6.81563e+00 -1.51779e+01 -2.43953e+01
       H -6.10869e+00 -1.44506e+01 -2.45629e+01
       H -6.80595e+00 -1.56032e+01 -2.52878e+01
       O  4.35500e-01  3.09398e-01 -1.64785e+01
       H  8.22125e-01 -5.72770e-01 -1.63973e+01
       H  2.09190e-01  3.10942e-01 -1.74719e+01
       O -1.81069e+00 -8.21090e+00  1.40639e+01
       H -2.35254e+00 -7.48397e+00  1.43973e+01
       H -1.01122e+00 -7.88372e+00  1.44793e+01
       O -8.24153e+00 -2.21892e+01 -2.69104e+01
       H -7.91969e+00 -2.26811e+01 -2.61079e+01
       H -7.46132e+00 -2.20725e+01 -2.74458e+01
       O  1.18184e+01  1.36873e-01 -3.04191e+01
       H  1.18593e+01  7.92012e-01 -3.11207e+01
       H  1.09824e+01  5.01825e-01 -2.99670e+01
       O -8.92563e+00 -1.12429e+01  2.23610e+01
       H -8.68190e+00 -1.18704e+01  2.30405e+01
       H -8.52183e+00 -1.16988e+01  2.16111e+01
       O -8.33670e+00 -1.74221e+01 -8.03251e+00
       H -8.84460e+00 -1.71681e+01 -8.82496e+00
       H -7.53267e+00 -1.71079e+01 -8.37052e+00
       O -1.74219e+01 -1.18588e+01  2.52419e+01
       H -1.77761e+01 -1.10176e+01  2.49000e+01
       H -1.79985e+01 -1.20229e+01  2.59807e+01
       O  1.16653e+01 -8.99239e+00 -1.52310e+01
       H  1.21659e+01 -9.76638e+00 -1.49820e+01
       H  1.11121e+01 -8.87857e+00 -1.44807e+01
       O -8.71021e+00  9.84603e+00 -1.12401e+01
       H -8.94671e+00  9.70227e+00 -1.03130e+01
       H -9.31332e+00  9.17691e+00 -1.17012e+01
       O -3.96186e+00 -2.98035e+00 -3.00044e+01
       H -4.40962e+00 -2.45716e+00 -2.93025e+01
       H -4.73709e+00 -3.41488e+00 -3.05178e+01
       O -1.05290e+00 -1.29655e+01 -1.17920e+01
       H -1.71926e+00 -1.23239e+01 -1.20375e+01
       H -7.30752e-01 -1.24466e+01 -1.10148e+01
       O -6.56507e+00 -1.07388e+01 -2.91460e+01
       H -6.70103e+00 -1.13544e+01 -2.98895e+01
       H -5.66441e+00 -1.03466e+01 -2.92584e+01
       O -1.76260e+00 -7.36445e+00 -2.10028e+01
       H -2.26549e+00 -7.57265e+00 -2.02361e+01
       H -2.15334e+00 -6.51561e+00 -2.12305e+01
       O -3.97416e+00  2.65799e+01 -1.28770e+01
       H -4.25515e+00  2.74554e+01 -1.31949e+01
       H -4.05237e+00  2.61729e+01 -1.37749e+01
       O -5.27491e+00 -1.96038e+01 -7.97460e+00
       H -6.02630e+00 -2.01438e+01 -8.26883e+00
       H -4.52839e+00 -2.02564e+01 -7.90858e+00
       O -2.03409e+00  7.16180e+00 -4.14890e+00
       H -2.91338e+00  7.49289e+00 -4.36157e+00
       H -1.98080e+00  6.31095e+00 -4.68411e+00
       O -3.54464e+00 -2.29240e+01 -2.81979e+01
       H -3.65221e+00 -2.32924e+01 -2.90695e+01
       H -2.86641e+00 -2.22768e+01 -2.82375e+01
       O -2.83246e+01 -1.35285e+01 -1.71276e+01
       H -2.79632e+01 -1.27137e+01 -1.66761e+01
       H -2.77605e+01 -1.36773e+01 -1.79052e+01
       O -2.19367e+01 -1.65288e+01 -1.92446e+01
       H -2.10424e+01 -1.66130e+01 -1.96365e+01
       H -2.20703e+01 -1.56381e+01 -1.95949e+01
       O  1.00205e+01  2.41550e+01 -1.13615e+01
       H  9.37665e+00  2.43795e+01 -1.20995e+01
       H  9.29008e+00  2.37271e+01 -1.08361e+01
       O -1.19884e+01  1.87759e+01 -1.46483e+01
       H -1.15189e+01  1.79517e+01 -1.43493e+01
       H -1.13965e+01  1.89787e+01 -1.53819e+01
       O  2.08346e+01 -2.87678e+01  1.14431e+01
       H  2.00500e+01 -2.84303e+01  1.09150e+01
       H  2.14139e+01 -2.81025e+01  1.11723e+01
       O -1.31668e+00 -7.13057e+00 -2.95594e+01
       H -1.03342e+00 -6.83742e+00 -2.86584e+01
       H -2.22753e+00 -7.14594e+00 -2.94196e+01
       O  1.24324e+01  2.97127e+01 -5.13086e+00
       H  1.33456e+01  2.97550e+01 -5.49508e+00
       H  1.22637e+01  2.87363e+01 -5.21052e+00
       O -2.20620e+01 -9.25171e+00 -7.69735e+00
       H -2.21824e+01 -8.47653e+00 -7.13136e+00
       H -2.29436e+01 -9.66625e+00 -7.65716e+00
       O -2.24017e+01  3.36676e+00 -9.79915e+00
       H -2.31155e+01  4.01340e+00 -1.01026e+01
       H -2.22569e+01  3.73630e+00 -8.90401e+00
       O -1.00907e+01 -8.71974e+00 -1.53611e+01
       H -9.30575e+00 -8.19180e+00 -1.54449e+01
       H -9.77720e+00 -9.62158e+00 -1.54908e+01
       O -9.60591e+00  1.12091e+01  2.02765e+01
       H -9.84570e+00  1.14272e+01  1.93436e+01
       H -1.04734e+01  1.14551e+01  2.07266e+01
       O  2.17895e+00  2.23500e+01 -4.24698e+00
       H  1.93107e+00 -2.55931e+01 -3.44877e+00
       H  1.67857e+00  2.18317e+01 -4.90161e+00
       O -2.07803e+01 -1.97515e+01 -7.34503e+00
       H -2.13977e+01 -2.01069e+01 -6.62697e+00
       H -1.98994e+01 -1.95394e+01 -6.86723e+00
       O -1.74857e+01  1.88066e+01 -9.57372e+00
       H -1.68459e+01  1.91130e+01 -8.93598e+00
       H -1.69769e+01  1.88938e+01 -1.03627e+01
       O -1.12526e+01 -1.25176e+01 -8.45894e+00
       H -1.13362e+01 -1.22180e+01 -9.41617e+00
       H -1.21635e+01 -1.22551e+01 -8.19120e+00
       O -2.58885e+00 -5.13709e+00 -1.48916e+01
       H -2.59166e+00 -4.48383e+00 -1.41965e+01
       H -2.46497e+00 -5.88684e+00 -1.42700e+01
       O -7.71010e+00 -1.22819e+01 -3.13924e+01
       H -8.19193e+00 -1.14933e+01 -3.14829e+01
       H -7.91275e+00 -1.27689e+01 -3.22179e+01
       O -5.77397e+00 -2.39639e+01 -1.44232e+01
       H -5.56158e+00 -2.33360e+01 -1.51410e+01
       H -5.24562e+00 -2.47359e+01 -1.47755e+01
       O  1.73619e+01 -1.17236e+01 -6.74691e+00
       H  1.74592e+01 -1.26644e+01 -6.98125e+00
       H  1.82034e+01 -1.13773e+01 -7.02997e+00
       O -1.22079e+01 -1.26488e+01 -2.03918e+01
       H -1.31979e+01 -1.27099e+01 -2.05036e+01
       H -1.21099e+01 -1.17194e+01 -2.01251e+01
       O -2.82109e+01 -1.07274e+01 -2.02601e+01
       H -2.79142e+01 -1.12606e+01 -1.95268e+01
       H -2.86811e+01 -1.14019e+01 -2.07967e+01
       O  3.12241e+00 -9.66056e+00  1.97250e+00
       H  2.22343e+00 -9.65908e+00  2.37110e+00