6
# CELL(abcABC): 1000.00000  1000.00000  1000.00000    90.00000    90.00000    90.00000  Step:         443  Bead:       0 positions{angstrom}  cell{angstrom}
       C -1.10847e+00  2.27918e+00  2.19441e-01
       H -5.44132e-01  1.58704e+00 -4.18426e-01
       H -6.17127e-01  2.34309e+00  1.22184e+00
       H -2.13843e+00  1.83053e+00  2.95467e-01
       O -1.16232e+00  3.66521e+00 -1.84523e-01
       H -1.55187e+00  3.74214e+00 -1.09845e+00
