6
# CELL(abcABC): 1000.00000  1000.00000  1000.00000    90.00000    90.00000    90.00000  Step:         522  Bead:       0 positions{angstrom}  cell{angstrom}
       C -7.68880e-01  2.95050e+00 -6.29077e-01
       H -1.25352e+00  3.52190e+00 -1.38616e+00
       H  2.19269e-01  3.35921e+00 -4.77827e-01
       H -6.55247e-01  1.96837e+00 -1.01203e+00
       O -1.48591e+00  3.05055e+00  5.74929e-01
       H -2.07237e+00  2.41037e+00  9.32394e-01
