4
# CELL(abcABC): 1000.00000  1000.00000  1000.00000    90.00000    90.00000    90.00000  Step:           0  Bead:       0 positions{angstrom}  cell{angstrom}
       O -3.14594e+00  1.06110e+00  3.70202e-01
       H -2.86850e+00  1.83285e-01  6.15555e-02
       H -2.57117e+00  1.76102e+00  5.71547e-02
       H -4.00960e+00  1.28313e+00  6.90569e-01
4
# CELL(abcABC): 1000.00000  1000.00000  1000.00000    90.00000    90.00000    90.00000  Step:           1  Bead:       0 positions{angstrom}  cell{angstrom}
       O -3.14421e+00  1.06135e+00  3.69615e-01
       H -2.87864e+00  1.77192e-01  6.61415e-02
       H -2.57095e+00  1.76001e+00  5.82752e-02
       H -4.02715e+00  1.28622e+00  6.94186e-01
4
# CELL(abcABC): 1000.00000  1000.00000  1000.00000    90.00000    90.00000    90.00000  Step:           2  Bead:       0 positions{angstrom}  cell{angstrom}
       O -3.14258e+00  1.06152e+00  3.68983e-01
       H -2.88969e+00  1.73701e-01  7.18560e-02
       H -2.56877e+00  1.75844e+00  5.91744e-02
       H -4.04418e+00  1.28871e+00  6.97596e-01
4
# CELL(abcABC): 1000.00000  1000.00000  1000.00000    90.00000    90.00000    90.00000  Step:           3  Bead:       0 positions{angstrom}  cell{angstrom}
       O -3.14102e+00  1.06166e+00  3.68287e-01
       H -2.90068e+00  1.71272e-01  7.98260e-02
       H -2.56635e+00  1.75756e+00  6.04196e-02
       H -4.06041e+00  1.28967e+00  6.99429e-01
4
# CELL(abcABC): 1000.00000  1000.00000  1000.00000    90.00000    90.00000    90.00000  Step:           4  Bead:       0 positions{angstrom}  cell{angstrom}
       O -3.13967e+00  1.06185e+00  3.67729e-01
       H -2.91206e+00  1.69520e-01  8.69732e-02
       H -2.56269e+00  1.75702e+00  6.08971e-02
       H -4.07408e+00  1.28905e+00  7.00668e-01
4
# CELL(abcABC): 1000.00000  1000.00000  1000.00000    90.00000    90.00000    90.00000  Step:           5  Bead:       0 positions{angstrom}  cell{angstrom}
       O -3.13847e+00  1.06194e+00  3.67303e-01
       H -2.92410e+00  1.69246e-01  9.38981e-02
       H -2.55911e+00  1.75729e+00  6.20969e-02
       H -4.08461e+00  1.28752e+00  6.99299e-01
4
# CELL(abcABC): 1000.00000  1000.00000  1000.00000    90.00000    90.00000    90.00000  Step:           6  Bead:       0 positions{angstrom}  cell{angstrom}
       O -3.13746e+00  1.06219e+00  3.67035e-01
       H -2.93562e+00  1.70119e-01  9.96474e-02
       H -2.55567e+00  1.75547e+00  6.20682e-02
       H -4.09262e+00  1.28454e+00  6.97837e-01
4
# CELL(abcABC): 1000.00000  1000.00000  1000.00000    90.00000    90.00000    90.00000  Step:           7  Bead:       0 positions{angstrom}  cell{angstrom}
       O -3.13682e+00  1.06245e+00  3.66718e-01
       H -2.94492e+00  1.71268e-01  1.06190e-01
       H -2.55192e+00  1.75274e+00  6.26106e-02
       H -4.09713e+00  1.28201e+00  6.95788e-01
4
# CELL(abcABC): 1000.00000  1000.00000  1000.00000    90.00000    90.00000    90.00000  Step:           8  Bead:       0 positions{angstrom}  cell{angstrom}
       O -3.13664e+00  1.06286e+00  3.66609e-01
       H -2.95217e+00  1.72091e-01  1.11360e-01
       H -2.54665e+00  1.74846e+00  6.23012e-02
       H -4.09814e+00  1.27894e+00  6.92658e-01
4
# CELL(abcABC): 1000.00000  1000.00000  1000.00000    90.00000    90.00000    90.00000  Step:           9  Bead:       0 positions{angstrom}  cell{angstrom}
       O -3.13686e+00  1.06352e+00  3.66524e-01
       H -2.95806e+00  1.71288e-01  1.16802e-01
       H -2.53983e+00  1.74362e+00  6.24186e-02
       H -4.09548e+00  1.27418e+00  6.88435e-01
4
# CELL(abcABC): 1000.00000  1000.00000  1000.00000    90.00000    90.00000    90.00000  Step:          10  Bead:       0 positions{angstrom}  cell{angstrom}
       O -3.13745e+00  1.06426e+00  3.66703e-01
       H -2.96232e+00  1.69518e-01  1.20580e-01
       H -2.53237e+00  1.73867e+00  6.17018e-02
       H -4.08933e+00  1.26912e+00  6.82531e-01
4
# CELL(abcABC): 1000.00000  1000.00000  1000.00000    90.00000    90.00000    90.00000  Step:          11  Bead:       0 positions{angstrom}  cell{angstrom}
       O -3.13836e+00  1.06515e+00  3.67146e-01
       H -2.96473e+00  1.67657e-01  1.22187e-01
       H -2.52590e+00  1.73253e+00  6.05667e-02
       H -4.07891e+00  1.26302e+00  6.75038e-01
4
# CELL(abcABC): 1000.00000  1000.00000  1000.00000    90.00000    90.00000    90.00000  Step:          12  Bead:       0 positions{angstrom}  cell{angstrom}
       O -3.13969e+00  1.06619e+00  3.67760e-01
       H -2.96423e+00  1.65156e-01  1.22702e-01
       H -2.51940e+00  1.72430e+00  5.84821e-02
       H -4.06488e+00  1.25716e+00  6.66852e-01
4
# CELL(abcABC): 1000.00000  1000.00000  1000.00000    90.00000    90.00000    90.00000  Step:          13  Bead:       0 positions{angstrom}  cell{angstrom}
       O -3.14129e+00  1.06729e+00  3.68417e-01
       H -2.96219e+00  1.63331e-01  1.22929e-01
       H -2.51159e+00  1.71523e+00  5.65016e-02
       H -4.04924e+00  1.25064e+00  6.58187e-01
4
# CELL(abcABC): 1000.00000  1000.00000  1000.00000    90.00000    90.00000    90.00000  Step:          14  Bead:       0 positions{angstrom}  cell{angstrom}
       O -3.14308e+00  1.06834e+00  3.69047e-01
       H -2.95751e+00  1.61823e-01  1.23330e-01
       H -2.50344e+00  1.70622e+00  5.46884e-02
       H -4.03365e+00  1.24448e+00  6.49597e-01
4
# CELL(abcABC): 1000.00000  1000.00000  1000.00000    90.00000    90.00000    90.00000  Step:          15  Bead:       0 positions{angstrom}  cell{angstrom}
       O -3.14481e+00  1.06918e+00  3.69412e-01
       H -2.95386e+00  1.60894e-01  1.25959e-01
       H -2.49633e+00  1.69741e+00  5.34018e-02
       H -4.01707e+00  1.24084e+00  6.42458e-01
4
# CELL(abcABC): 1000.00000  1000.00000  1000.00000    90.00000    90.00000    90.00000  Step:          16  Bead:       0 positions{angstrom}  cell{angstrom}
       O -3.14644e+00  1.06980e+00  3.69670e-01
       H -2.94851e+00  1.60950e-01  1.28557e-01
       H -2.49002e+00  1.68957e+00  5.26167e-02
       H -4.00280e+00  1.23889e+00  6.36551e-01
4
# CELL(abcABC): 1000.00000  1000.00000  1000.00000    90.00000    90.00000    90.00000  Step:          17  Bead:       0 positions{angstrom}  cell{angstrom}
       O -3.14772e+00  1.07020e+00  3.69767e-01
       H -2.94208e+00  1.62957e-01  1.31854e-01
       H -2.48560e+00  1.68254e+00  5.13967e-02
       H -3.99337e+00  1.23753e+00  6.32941e-01
4
# CELL(abcABC): 1000.00000  1000.00000  1000.00000    90.00000    90.00000    90.00000  Step:          18  Bead:       0 positions{angstrom}  cell{angstrom}
       O -3.14859e+00  1.07028e+00  3.69675e-01
       H -2.93654e+00  1.67149e-01  1.35877e-01
       H -2.48107e+00  1.67589e+00  5.06455e-02
       H -3.98957e+00  1.23868e+00  6.31121e-01
4
# CELL(abcABC): 1000.00000  1000.00000  1000.00000    90.00000    90.00000    90.00000  Step:          19  Bead:       0 positions{angstrom}  cell{angstrom}
       O -3.14914e+00  1.07019e+00  3.69376e-01
       H -2.93053e+00  1.72081e-01  1.40849e-01
       H -2.47838e+00  1.66921e+00  4.97833e-02
       H -3.98952e+00  1.24180e+00  6.31764e-01
4
# CELL(abcABC): 1000.00000  1000.00000  1000.00000    90.00000    90.00000    90.00000  Step:          20  Bead:       0 positions{angstrom}  cell{angstrom}
       O -3.14928e+00  1.06997e+00  3.68961e-01
       H -2.92441e+00  1.77670e-01  1.44782e-01
       H -2.47763e+00  1.66342e+00  4.96484e-02
       H -3.99417e+00  1.24557e+00  6.34549e-01
4
# CELL(abcABC): 1000.00000  1000.00000  1000.00000    90.00000    90.00000    90.00000  Step:          21  Bead:       0 positions{angstrom}  cell{angstrom}
       O -3.14916e+00  1.06960e+00  3.68485e-01
       H -2.91866e+00  1.82213e-01  1.47703e-01
       H -2.47597e+00  1.65935e+00  5.08195e-02
       H -4.00359e+00  1.25097e+00  6.38010e-01
4
# CELL(abcABC): 1000.00000  1000.00000  1000.00000    90.00000    90.00000    90.00000  Step:          22  Bead:       0 positions{angstrom}  cell{angstrom}
       O -3.14885e+00  1.06906e+00  3.68019e-01
       H -2.91397e+00  1.84708e-01  1.51567e-01
       H -2.47262e+00  1.65689e+00  5.06454e-02
       H -4.01657e+00  1.25955e+00  6.41714e-01
4
# CELL(abcABC): 1000.00000  1000.00000  1000.00000    90.00000    90.00000    90.00000  Step:          23  Bead:       0 positions{angstrom}  cell{angstrom}
       O -3.14841e+00  1.06846e+00  3.67697e-01
       H -2.90906e+00  1.86129e-01  1.54768e-01
       H -2.46873e+00  1.65625e+00  5.11181e-02
       H -4.03221e+00  1.26825e+00  6.43151e-01
4
# CELL(abcABC): 1000.00000  1000.00000  1000.00000    90.00000    90.00000    90.00000  Step:          24  Bead:       0 positions{angstrom}  cell{angstrom}
       O -3.14794e+00  1.06777e+00  3.67371e-01
       H -2.90352e+00  1.84711e-01  1.57723e-01
       H -2.46488e+00  1.65782e+00  5.21594e-02
       H -4.04916e+00  1.27904e+00  6.44341e-01
4
# CELL(abcABC): 1000.00000  1000.00000  1000.00000    90.00000    90.00000    90.00000  Step:          25  Bead:       0 positions{angstrom}  cell{angstrom}
       O -3.14741e+00  1.06721e+00  3.66956e-01
       H -2.89807e+00  1.80631e-01  1.61355e-01
       H -2.46203e+00  1.65954e+00  5.38210e-02
       H -4.06584e+00  1.29035e+00  6.45636e-01
4
# CELL(abcABC): 1000.00000  1000.00000  1000.00000    90.00000    90.00000    90.00000  Step:          26  Bead:       0 positions{angstrom}  cell{angstrom}
       O -3.14691e+00  1.06678e+00  3.66523e-01
       H -2.89279e+00  1.74737e-01  1.64272e-01
       H -2.45966e+00  1.66148e+00  5.57916e-02
       H -4.08142e+00  1.30113e+00  6.47616e-01
4
# CELL(abcABC): 1000.00000  1000.00000  1000.00000    90.00000    90.00000    90.00000  Step:          27  Bead:       0 positions{angstrom}  cell{angstrom}
       O -3.14659e+00  1.06637e+00  3.66125e-01
       H -2.88805e+00  1.69409e-01  1.66669e-01
       H -2.45818e+00  1.66281e+00  5.79814e-02
       H -4.09274e+00  1.31159e+00  6.49346e-01
4
# CELL(abcABC): 1000.00000  1000.00000  1000.00000    90.00000    90.00000    90.00000  Step:          28  Bead:       0 positions{angstrom}  cell{angstrom}
       O -3.14632e+00  1.06599e+00  3.65674e-01
       H -2.88491e+00  1.62841e-01  1.69179e-01
       H -2.45708e+00  1.66433e+00  6.09870e-02
       H -4.10124e+00  1.32267e+00  6.50987e-01
4
# CELL(abcABC): 1000.00000  1000.00000  1000.00000    90.00000    90.00000    90.00000  Step:          29  Bead:       0 positions{angstrom}  cell{angstrom}
       O -3.14621e+00  1.06556e+00  3.65248e-01
       H -2.88178e+00  1.57620e-01  1.70643e-01
       H -2.45791e+00  1.66573e+00  6.45367e-02
       H -4.10529e+00  1.33327e+00  6.52740e-01
4
# CELL(abcABC): 1000.00000  1000.00000  1000.00000    90.00000    90.00000    90.00000  Step:          30  Bead:       0 positions{angstrom}  cell{angstrom}
       O -3.14625e+00  1.06498e+00  3.64797e-01
       H -2.87911e+00  1.55013e-01  1.73314e-01
       H -2.45989e+00  1.66702e+00  6.89779e-02
       H -4.10535e+00  1.34374e+00  6.52783e-01
4
# CELL(abcABC): 1000.00000  1000.00000  1000.00000    90.00000    90.00000    90.00000  Step:          31  Bead:       0 positions{angstrom}  cell{angstrom}
       O -3.14659e+00  1.06423e+00  3.64424e-01
       H -2.87578e+00  1.54397e-01  1.76641e-01
       H -2.46203e+00  1.66945e+00  7.31528e-02
       H -4.10119e+00  1.35386e+00  6.51209e-01
4
# CELL(abcABC): 1000.00000  1000.00000  1000.00000    90.00000    90.00000    90.00000  Step:          32  Bead:       0 positions{angstrom}  cell{angstrom}
       O -3.14706e+00  1.06352e+00  3.63893e-01
       H -2.87428e+00  1.53695e-01  1.81032e-01
       H -2.46433e+00  1.67318e+00  7.88434e-02
       H -4.09284e+00  1.36214e+00  6.49553e-01
4
# CELL(abcABC): 1000.00000  1000.00000  1000.00000    90.00000    90.00000    90.00000  Step:          33  Bead:       0 positions{angstrom}  cell{angstrom}
       O -3.14767e+00  1.06291e+00  3.63277e-01
       H -2.87426e+00  1.53948e-01  1.87053e-01
       H -2.46692e+00  1.67589e+00  8.52921e-02
       H -4.08060e+00  1.36893e+00  6.46854e-01
4
# CELL(abcABC): 1000.00000  1000.00000  1000.00000    90.00000    90.00000    90.00000  Step:          34  Bead:       0 positions{angstrom}  cell{angstrom}
       O -3.14828e+00  1.06232e+00  3.62790e-01
       H -2.87468e+00  1.55345e-01  1.93198e-01
       H -2.47184e+00  1.67806e+00  9.22665e-02
       H -4.06564e+00  1.37461e+00  6.41472e-01
4
# CELL(abcABC): 1000.00000  1000.00000  1000.00000    90.00000    90.00000    90.00000  Step:          35  Bead:       0 positions{angstrom}  cell{angstrom}
       O -3.14903e+00  1.06172e+00  3.62349e-01
       H -2.87417e+00  1.57554e-01  1.98721e-01
       H -2.47817e+00  1.68128e+00  9.99435e-02
       H -4.04785e+00  1.37872e+00  6.35271e-01
4
# CELL(abcABC): 1000.00000  1000.00000  1000.00000    90.00000    90.00000    90.00000  Step:          36  Bead:       0 positions{angstrom}  cell{angstrom}
       O -3.14991e+00  1.06106e+00  3.61981e-01
       H -2.87408e+00  1.60216e-01  2.03668e-01
       H -2.48416e+00  1.68615e+00  1.06630e-01
       H -4.02806e+00  1.38174e+00  6.29479e-01
4
# CELL(abcABC): 1000.00000  1000.00000  1000.00000    90.00000    90.00000    90.00000  Step:          37  Bead:       0 positions{angstrom}  cell{angstrom}
       O -3.15089e+00  1.06049e+00  3.61552e-01
       H -2.87386e+00  1.63647e-01  2.10160e-01
       H -2.48918e+00  1.69079e+00  1.12545e-01
       H -4.00767e+00  1.38275e+00  6.23884e-01
4
# CELL(abcABC): 1000.00000  1000.00000  1000.00000    90.00000    90.00000    90.00000  Step:          38  Bead:       0 positions{angstrom}  cell{angstrom}
       O -3.15170e+00  1.05997e+00  3.61321e-01
       H -2.87495e+00  1.66223e-01  2.15116e-01
       H -2.49342e+00  1.69464e+00  1.17807e-01
       H -3.98943e+00  1.38452e+00  6.17322e-01
4
# CELL(abcABC): 1000.00000  1000.00000  1000.00000    90.00000    90.00000    90.00000  Step:          39  Bead:       0 positions{angstrom}  cell{angstrom}
       O -3.15261e+00  1.05965e+00  3.61003e-01
       H -2.87545e+00  1.67074e-01  2.20129e-01
       H -2.49630e+00  1.69756e+00  1.23533e-01
       H -3.97168e+00  1.38589e+00  6.11633e-01
4
# CELL(abcABC): 1000.00000  1000.00000  1000.00000    90.00000    90.00000    90.00000  Step:          40  Bead:       0 positions{angstrom}  cell{angstrom}
       O -3.15341e+00  1.05934e+00  3.60485e-01
       H -2.87599e+00  1.66710e-01  2.25621e-01
       H -2.49774e+00  1.70077e+00  1.30442e-01
       H -3.95699e+00  1.38795e+00  6.07451e-01
4
# CELL(abcABC): 1000.00000  1000.00000  1000.00000    90.00000    90.00000    90.00000  Step:          41  Bead:       0 positions{angstrom}  cell{angstrom}
       O -3.15399e+00  1.05904e+00  3.59866e-01
       H -2.87683e+00  1.65650e-01  2.30206e-01
       H -2.49729e+00  1.70436e+00  1.37261e-01
       H -3.94740e+00  1.39007e+00  6.05872e-01
4
# CELL(abcABC): 1000.00000  1000.00000  1000.00000    90.00000    90.00000    90.00000  Step:          42  Bead:       0 positions{angstrom}  cell{angstrom}
       O -3.15441e+00  1.05893e+00  3.59226e-01
       H -2.87618e+00  1.61324e-01  2.33984e-01
       H -2.49536e+00  1.70773e+00  1.44125e-01
       H -3.94336e+00  1.39290e+00  6.05395e-01
4
# CELL(abcABC): 1000.00000  1000.00000  1000.00000    90.00000    90.00000    90.00000  Step:          43  Bead:       0 positions{angstrom}  cell{angstrom}
       O -3.15450e+00  1.05877e+00  3.58512e-01
       H -2.87584e+00  1.56910e-01  2.36995e-01
       H -2.49221e+00  1.71188e+00  1.50998e-01
       H -3.94533e+00  1.39560e+00  6.06850e-01
4
# CELL(abcABC): 1000.00000  1000.00000  1000.00000    90.00000    90.00000    90.00000  Step:          44  Bead:       0 positions{angstrom}  cell{angstrom}
       O -3.15426e+00  1.05869e+00  3.57709e-01
       H -2.87539e+00  1.51419e-01  2.39019e-01
       H -2.48819e+00  1.71466e+00  1.57286e-01
       H -3.95360e+00  1.39962e+00  6.11272e-01
4
# CELL(abcABC): 1000.00000  1000.00000  1000.00000    90.00000    90.00000    90.00000  Step:          45  Bead:       0 positions{angstrom}  cell{angstrom}
       O -3.15366e+00  1.05868e+00  3.56894e-01
       H -2.87568e+00  1.46286e-01  2.40076e-01
       H -2.48294e+00  1.71552e+00  1.62725e-01
       H -3.96814e+00  1.40408e+00  6.17723e-01
4
# CELL(abcABC): 1000.00000  1000.00000  1000.00000    90.00000    90.00000    90.00000  Step:          46  Bead:       0 positions{angstrom}  cell{angstrom}
       O -3.15291e+00  1.05875e+00  3.56066e-01
       H -2.87629e+00  1.42553e-01  2.40441e-01
       H -2.47749e+00  1.71399e+00  1.67681e-01
       H -3.98493e+00  1.40814e+00  6.25544e-01
4
# CELL(abcABC): 1000.00000  1000.00000  1000.00000    90.00000    90.00000    90.00000  Step:          47  Bead:       0 positions{angstrom}  cell{angstrom}
       O -3.15203e+00  1.05879e+00  3.55350e-01
       H -2.87708e+00  1.39715e-01  2.40825e-01
       H -2.47169e+00  1.71104e+00  1.71737e-01
       H -4.00387e+00  1.41327e+00  6.32473e-01
4
# CELL(abcABC): 1000.00000  1000.00000  1000.00000    90.00000    90.00000    90.00000  Step:          48  Bead:       0 positions{angstrom}  cell{angstrom}
       O -3.15112e+00  1.05901e+00  3.54643e-01
       H -2.87757e+00  1.37240e-01  2.41291e-01
       H -2.46577e+00  1.70704e+00  1.74979e-01
       H -4.02368e+00  1.41627e+00  6.39979e-01
4
# CELL(abcABC): 1000.00000  1000.00000  1000.00000    90.00000    90.00000    90.00000  Step:          49  Bead:       0 positions{angstrom}  cell{angstrom}
       O -3.15033e+00  1.05933e+00  3.53870e-01
       H -2.87818e+00  1.35883e-01  2.42137e-01
       H -2.45858e+00  1.70118e+00  1.78214e-01
       H -4.04288e+00  1.41852e+00  6.48164e-01
4
# CELL(abcABC): 1000.00000  1000.00000  1000.00000    90.00000    90.00000    90.00000  Step:          50  Bead:       0 positions{angstrom}  cell{angstrom}
       O -3.14949e+00  1.05981e+00  3.53267e-01
       H -2.87930e+00  1.36306e-01  2.42505e-01
       H -2.45310e+00  1.69314e+00  1.81366e-01
       H -4.06047e+00  1.41852e+00  6.54222e-01
4
# CELL(abcABC): 1000.00000  1000.00000  1000.00000    90.00000    90.00000    90.00000  Step:          51  Bead:       0 positions{angstrom}  cell{angstrom}
       O -3.14886e+00  1.06037e+00  3.52771e-01
       H -2.88102e+00  1.37874e-01  2.42233e-01
       H -2.44778e+00  1.68435e+00  1.84106e-01
       H -4.07411e+00  1.41686e+00  6.59621e-01
4
# CELL(abcABC): 1000.00000  1000.00000  1000.00000    90.00000    90.00000    90.00000  Step:          52  Bead:       0 positions{angstrom}  cell{angstrom}
       O -3.14845e+00  1.06110e+00  3.52500e-01
       H -2.88337e+00  1.40567e-01  2.41758e-01
       H -2.44239e+00  1.67438e+00  1.85341e-01
       H -4.08371e+00  1.41246e+00  6.63169e-01
4
# CELL(abcABC): 1000.00000  1000.00000  1000.00000    90.00000    90.00000    90.00000  Step:          53  Bead:       0 positions{angstrom}  cell{angstrom}
       O -3.14833e+00  1.06188e+00  3.52322e-01
       H -2.88540e+00  1.44800e-01  2.40148e-01
       H -2.43677e+00  1.66574e+00  1.86762e-01
       H -4.08923e+00  1.40453e+00  6.66191e-01
4
# CELL(abcABC): 1000.00000  1000.00000  1000.00000    90.00000    90.00000    90.00000  Step:          54  Bead:       0 positions{angstrom}  cell{angstrom}
       O -3.14847e+00  1.06281e+00  3.52005e-01
       H -2.88773e+00  1.48706e-01  2.39407e-01
       H -2.43093e+00  1.65814e+00  1.88516e-01
       H -4.09040e+00  1.39339e+00  6.70200e-01
4
# CELL(abcABC): 1000.00000  1000.00000  1000.00000    90.00000    90.00000    90.00000  Step:          55  Bead:       0 positions{angstrom}  cell{angstrom}
       O -3.14896e+00  1.06384e+00  3.51768e-01
       H -2.89082e+00  1.52902e-01  2.39262e-01
       H -2.42434e+00  1.65128e+00  1.90556e-01
       H -4.08615e+00  1.37982e+00  6.72078e-01
4
# CELL(abcABC): 1000.00000  1000.00000  1000.00000    90.00000    90.00000    90.00000  Step:          56  Bead:       0 positions{angstrom}  cell{angstrom}
       O -3.14980e+00  1.06489e+00  3.51627e-01
       H -2.89181e+00  1.57048e-01  2.39558e-01
       H -2.41739e+00  1.64498e+00  1.91196e-01
       H -4.07875e+00  1.36518e+00  6.73379e-01
4
# CELL(abcABC): 1000.00000  1000.00000  1000.00000    90.00000    90.00000    90.00000  Step:          57  Bead:       0 positions{angstrom}  cell{angstrom}
       O -3.15088e+00  1.06598e+00  3.51518e-01
       H -2.89123e+00  1.61074e-01  2.40245e-01
       H -2.41124e+00  1.63908e+00  1.92634e-01
       H -4.06835e+00  1.34980e+00  6.72981e-01
4
# CELL(abcABC): 1000.00000  1000.00000  1000.00000    90.00000    90.00000    90.00000  Step:          58  Bead:       0 positions{angstrom}  cell{angstrom}
       O -3.15224e+00  1.06717e+00  3.51474e-01
       H -2.88947e+00  1.63324e-01  2.40682e-01
       H -2.40465e+00  1.63413e+00  1.94653e-01
       H -4.05518e+00  1.33361e+00  6.71218e-01
4
# CELL(abcABC): 1000.00000  1000.00000  1000.00000    90.00000    90.00000    90.00000  Step:          59  Bead:       0 positions{angstrom}  cell{angstrom}
       O -3.15378e+00  1.06835e+00  3.51352e-01
       H -2.88673e+00  1.64634e-01  2.41185e-01
       H -2.39797e+00  1.63063e+00  1.98389e-01
       H -4.04014e+00  1.31713e+00  6.68918e-01
4
# CELL(abcABC): 1000.00000  1000.00000  1000.00000    90.00000    90.00000    90.00000  Step:          60  Bead:       0 positions{angstrom}  cell{angstrom}
       O -3.15539e+00  1.06957e+00  3.51280e-01
       H -2.88506e+00  1.64666e-01  2.41801e-01
       H -2.39106e+00  1.62736e+00  2.00858e-01
       H -4.02309e+00  1.30092e+00  6.66973e-01
4
# CELL(abcABC): 1000.00000  1000.00000  1000.00000    90.00000    90.00000    90.00000  Step:          61  Bead:       0 positions{angstrom}  cell{angstrom}
       O -3.15702e+00  1.07080e+00  3.51199e-01
       H -2.88271e+00  1.63547e-01  2.42252e-01
       H -2.38389e+00  1.62454e+00  2.02487e-01
       H -4.00682e+00  1.28535e+00  6.66179e-01
4
# CELL(abcABC): 1000.00000  1000.00000  1000.00000    90.00000    90.00000    90.00000  Step:          62  Bead:       0 positions{angstrom}  cell{angstrom}
       O -3.15834e+00  1.07203e+00  3.51167e-01
       H -2.88154e+00  1.61429e-01  2.42407e-01
       H -2.37945e+00  1.62168e+00  2.04173e-01
       H -3.99144e+00  1.27078e+00  6.64853e-01
4
# CELL(abcABC): 1000.00000  1000.00000  1000.00000    90.00000    90.00000    90.00000  Step:          63  Bead:       0 positions{angstrom}  cell{angstrom}
       O -3.15924e+00  1.07301e+00  3.50851e-01
       H -2.88070e+00  1.60672e-01  2.43238e-01
       H -2.37723e+00  1.61843e+00  2.06299e-01
       H -3.98028e+00  1.25921e+00  6.66912e-01
4
# CELL(abcABC): 1000.00000  1000.00000  1000.00000    90.00000    90.00000    90.00000  Step:          64  Bead:       0 positions{angstrom}  cell{angstrom}
       O -3.15970e+00  1.07380e+00  3.50329e-01
       H -2.87941e+00  1.60943e-01  2.45281e-01
       H -2.37663e+00  1.61537e+00  2.09070e-01
       H -3.97475e+00  1.24959e+00  6.70372e-01
4
# CELL(abcABC): 1000.00000  1000.00000  1000.00000    90.00000    90.00000    90.00000  Step:          65  Bead:       0 positions{angstrom}  cell{angstrom}
       O -3.15967e+00  1.07429e+00  3.49650e-01
       H -2.87978e+00  1.62776e-01  2.46444e-01
       H -2.37723e+00  1.61420e+00  2.12272e-01
       H -3.97428e+00  1.24116e+00  6.76797e-01
4
# CELL(abcABC): 1000.00000  1000.00000  1000.00000    90.00000    90.00000    90.00000  Step:          66  Bead:       0 positions{angstrom}  cell{angstrom}
       O -3.15918e+00  1.07443e+00  3.48700e-01
       H -2.88110e+00  1.68079e-01  2.48423e-01
       H -2.37933e+00  1.61242e+00  2.16346e-01
       H -3.97873e+00  1.23535e+00  6.85816e-01
4
# CELL(abcABC): 1000.00000  1000.00000  1000.00000    90.00000    90.00000    90.00000  Step:          67  Bead:       0 positions{angstrom}  cell{angstrom}
       O -3.15821e+00  1.07443e+00  3.47597e-01
       H -2.88284e+00  1.72861e-01  2.49585e-01
       H -2.38210e+00  1.61194e+00  2.21429e-01
       H -3.98951e+00  1.23098e+00  6.97088e-01
4
# CELL(abcABC): 1000.00000  1000.00000  1000.00000    90.00000    90.00000    90.00000  Step:          68  Bead:       0 positions{angstrom}  cell{angstrom}
       O -3.15701e+00  1.07422e+00  3.46539e-01
       H -2.88436e+00  1.77034e-01  2.50282e-01
       H -2.38520e+00  1.61312e+00  2.25322e-01
       H -4.00394e+00  1.22910e+00  7.09292e-01
4
# CELL(abcABC): 1000.00000  1000.00000  1000.00000    90.00000    90.00000    90.00000  Step:          69  Bead:       0 positions{angstrom}  cell{angstrom}
       O -3.15563e+00  1.07398e+00  3.45260e-01
       H -2.88638e+00  1.78600e-01  2.52291e-01
       H -2.38919e+00  1.61625e+00  2.30414e-01
       H -4.01996e+00  1.22810e+00  7.22488e-01
4
# CELL(abcABC): 1000.00000  1000.00000  1000.00000    90.00000    90.00000    90.00000  Step:          70  Bead:       0 positions{angstrom}  cell{angstrom}
       O -3.15441e+00  1.07352e+00  3.44002e-01
       H -2.88791e+00  1.79190e-01  2.52942e-01
       H -2.39269e+00  1.62224e+00  2.35414e-01
       H -4.03421e+00  1.22890e+00  7.36804e-01
4
# CELL(abcABC): 1000.00000  1000.00000  1000.00000    90.00000    90.00000    90.00000  Step:          71  Bead:       0 positions{angstrom}  cell{angstrom}
       O -3.15328e+00  1.07307e+00  3.42877e-01
       H -2.88978e+00  1.76780e-01  2.51675e-01
       H -2.39615e+00  1.62979e+00  2.40094e-01
       H -4.04687e+00  1.23090e+00  7.51244e-01
4
# CELL(abcABC): 1000.00000  1000.00000  1000.00000    90.00000    90.00000    90.00000  Step:          72  Bead:       0 positions{angstrom}  cell{angstrom}
       O -3.15239e+00  1.07247e+00  3.41806e-01
       H -2.89083e+00  1.72848e-01  2.50114e-01
       H -2.39885e+00  1.63941e+00  2.45606e-01
       H -4.05714e+00  1.23471e+00  7.64299e-01
4
# CELL(abcABC): 1000.00000  1000.00000  1000.00000    90.00000    90.00000    90.00000  Step:          73  Bead:       0 positions{angstrom}  cell{angstrom}
       O -3.15172e+00  1.07186e+00  3.40934e-01
       H -2.89151e+00  1.67341e-01  2.47832e-01
       H -2.40121e+00  1.65094e+00  2.51231e-01
       H -4.06477e+00  1.23830e+00  7.74799e-01
4
# CELL(abcABC): 1000.00000  1000.00000  1000.00000    90.00000    90.00000    90.00000  Step:          74  Bead:       0 positions{angstrom}  cell{angstrom}
       O -3.15134e+00  1.07117e+00  3.40369e-01
       H -2.89137e+00  1.61111e-01  2.43710e-01
       H -2.40362e+00  1.66346e+00  2.55794e-01
       H -4.06850e+00  1.24306e+00  7.83331e-01
4
# CELL(abcABC): 1000.00000  1000.00000  1000.00000    90.00000    90.00000    90.00000  Step:          75  Bead:       0 positions{angstrom}  cell{angstrom}
       O -3.15105e+00  1.07048e+00  3.39964e-01
       H -2.89127e+00  1.53845e-01  2.38565e-01
       H -2.40719e+00  1.67566e+00  2.61226e-01
       H -4.06965e+00  1.24904e+00  7.89474e-01
4
# CELL(abcABC): 1000.00000  1000.00000  1000.00000    90.00000    90.00000    90.00000  Step:          76  Bead:       0 positions{angstrom}  cell{angstrom}
       O -3.15106e+00  1.06963e+00  3.39597e-01
       H -2.89002e+00  1.47650e-01  2.34141e-01
       H -2.41187e+00  1.68760e+00  2.66858e-01
       H -4.06610e+00  1.25680e+00  7.94091e-01
4
# CELL(abcABC): 1000.00000  1000.00000  1000.00000    90.00000    90.00000    90.00000  Step:          77  Bead:       0 positions{angstrom}  cell{angstrom}
       O -3.15117e+00  1.06871e+00  3.39350e-01
       H -2.88864e+00  1.43919e-01  2.29491e-01
       H -2.41830e+00  1.69895e+00  2.73190e-01
       H -4.05932e+00  1.26377e+00  7.96323e-01
4
# CELL(abcABC): 1000.00000  1000.00000  1000.00000    90.00000    90.00000    90.00000  Step:          78  Bead:       0 positions{angstrom}  cell{angstrom}
       O -3.15138e+00  1.06778e+00  3.39419e-01
       H -2.88827e+00  1.41505e-01  2.23762e-01
       H -2.42531e+00  1.70958e+00  2.79314e-01
       H -4.04933e+00  1.27039e+00  7.94829e-01
4
# CELL(abcABC): 1000.00000  1000.00000  1000.00000    90.00000    90.00000    90.00000  Step:          79  Bead:       0 positions{angstrom}  cell{angstrom}
       O -3.15178e+00  1.06693e+00  3.39601e-01
       H -2.88845e+00  1.41871e-01  2.19227e-01
       H -2.43242e+00  1.71760e+00  2.85212e-01
       H -4.03571e+00  1.27535e+00  7.90586e-01
4
# CELL(abcABC): 1000.00000  1000.00000  1000.00000    90.00000    90.00000    90.00000  Step:          80  Bead:       0 positions{angstrom}  cell{angstrom}
       O -3.15237e+00  1.06613e+00  3.39805e-01
       H -2.88813e+00  1.44731e-01  2.14663e-01
       H -2.44036e+00  1.72334e+00  2.92071e-01
       H -4.01874e+00  1.27945e+00  7.85050e-01
4
# CELL(abcABC): 1000.00000  1000.00000  1000.00000    90.00000    90.00000    90.00000  Step:          81  Bead:       0 positions{angstrom}  cell{angstrom}
       O -3.15309e+00  1.06524e+00  3.40181e-01
       H -2.88554e+00  1.50382e-01  2.09450e-01
       H -2.44983e+00  1.72890e+00  2.98964e-01
       H -4.00047e+00  1.28239e+00  7.77399e-01
4
# CELL(abcABC): 1000.00000  1000.00000  1000.00000    90.00000    90.00000    90.00000  Step:          82  Bead:       0 positions{angstrom}  cell{angstrom}
       O -3.15382e+00  1.06456e+00  3.40545e-01
       H -2.88198e+00  1.56838e-01  2.04945e-01
       H -2.45960e+00  1.73132e+00  3.05566e-01
       H -3.98258e+00  1.28438e+00  7.69527e-01
4
# CELL(abcABC): 1000.00000  1000.00000  1000.00000    90.00000    90.00000    90.00000  Step:          83  Bead:       0 positions{angstrom}  cell{angstrom}
       O -3.15457e+00  1.06389e+00  3.40962e-01
       H -2.87799e+00  1.64498e-01  2.00775e-01
       H -2.46956e+00  1.73254e+00  3.11865e-01
       H -3.96471e+00  1.28619e+00  7.60775e-01
4
# CELL(abcABC): 1000.00000  1000.00000  1000.00000    90.00000    90.00000    90.00000  Step:          84  Bead:       0 positions{angstrom}  cell{angstrom}
       O -3.15523e+00  1.06330e+00  3.41430e-01
       H -2.87241e+00  1.71443e-01  1.95419e-01
       H -2.48021e+00  1.73282e+00  3.17650e-01
       H -3.94917e+00  1.28831e+00  7.52913e-01
4
# CELL(abcABC): 1000.00000  1000.00000  1000.00000    90.00000    90.00000    90.00000  Step:          85  Bead:       0 positions{angstrom}  cell{angstrom}