14
# CELL(abcABC): 1000.00000  1000.00000  1000.00000    90.00000    90.00000    90.00000  Step:         106  Bead:       0 positions{angstrom}  cell{angstrom}
       C -6.23476e-01  6.37785e-01 -8.28682e-02
       C  4.18700e-01 -2.14848e-01  6.57229e-01
       C -1.97435e+00 -1.43221e-01 -3.01779e-01
       C -8.78735e-01  1.99134e+00  6.88119e-01
       H -1.28251e+00  1.92744e+00  1.63829e+00
       H -1.57219e+00  2.65789e+00  1.43817e-01
       H  7.79923e-02  2.54963e+00  8.28725e-01
       H -1.72662e+00 -1.00194e+00 -8.75036e-01
       H -2.76757e+00  3.95848e-01 -8.12702e-01
       H -2.38482e+00 -5.53841e-01  6.03440e-01
       H  1.51605e+00  1.01722e-01  4.32645e-01
       H  3.35545e-01 -1.25084e+00  3.58560e-01
       H  3.13090e-01 -1.36680e-01  1.66708e+00
       H -2.39342e-01  7.26758e-01 -1.13607e+00
