11135
# CELL(abcABC):   47.46614    47.46614    47.46614    90.00000    90.00000    90.00000  Step:        3050  Bead:       0 positions{angstrom}  cell{angstrom}
       C -6.90548e+00 -2.10357e+00 -7.48689e-01
       H -7.41951e+00 -1.23398e+00 -1.36183e-01
       H -6.85610e+00 -2.98117e+00 -3.28221e-02
       H -7.65147e+00 -2.42068e+00 -1.41669e+00
       C -5.60966e+00 -1.67937e+00 -1.33842e+00
       O -4.62509e+00 -2.31891e+00 -1.46902e+00
       N -5.58981e+00 -3.91107e-01 -1.64074e+00
       H -6.41362e+00  1.45513e-01 -1.48951e+00
       C -4.47633e+00  3.18342e-01 -2.26736e+00
       H -4.00311e+00 -3.39882e-01 -3.06190e+00
       C -4.97382e+00  1.63251e+00 -2.91865e+00
       H -4.13125e+00  2.13044e+00 -3.34976e+00
       H -5.28419e+00  2.36763e+00 -2.17295e+00
       C -5.99496e+00  1.32181e+00 -3.96207e+00
       H -6.83868e+00  7.65903e-01 -3.57541e+00
       H -5.52335e+00  7.01970e-01 -4.72802e+00
       C -6.51016e+00  2.57933e+00 -4.53869e+00
       H -5.63145e+00  3.07884e+00 -5.00109e+00
       H -7.00576e+00  3.35996e+00 -3.82366e+00
       C -7.62319e+00  2.32794e+00 -5.55022e+00
       H -8.01887e+00  3.32722e+00 -5.88057e+00
       H -8.45016e+00  1.78061e+00 -5.06084e+00
       N -7.25561e+00  1.50246e+00 -6.73819e+00
       H -6.23884e+00  1.62102e+00 -7.00418e+00
       H -7.95047e+00  1.80328e+00 -7.63302e+00
       H -7.30178e+00  4.72386e-01 -6.48754e+00
       C -3.40389e+00  6.74746e-01 -1.22801e+00
       O -3.60831e+00  1.66565e+00 -4.86516e-01
       N -2.28445e+00 -6.41529e-02 -1.27735e+00
       H -1.80535e+00 -1.57397e-01 -2.16581e+00
       H -1.65270e+00 -1.72619e-02 -4.76584e-01
       O -1.23440e+01 -4.73721e+00 -2.52295e+01
       H -1.15894e+01 -4.56586e+00 -2.58645e+01
       H -1.27779e+01 -5.46057e+00 -2.57695e+01
       O -2.54388e+01 -7.28804e+00 -6.80533e+00
       H -2.54020e+01 -7.31029e+00 -5.77912e+00
       H -2.59421e+01 -6.42374e+00 -7.00853e+00
       O  1.42180e+01 -1.43788e+01  6.33042e-01
       H  1.38986e+01 -1.34283e+01  7.38031e-01
       H  1.33326e+01 -1.48040e+01  6.63705e-01
       O -1.62364e+01 -1.27630e+01 -2.04746e+01
       H -1.53735e+01 -1.27880e+01 -2.08167e+01
       H -1.64579e+01 -1.18686e+01 -2.06466e+01
       O -5.31280e+00 -9.70974e+00 -2.18157e+01
       H -4.58438e+00 -1.00776e+01 -2.12924e+01
       H -5.98515e+00 -9.51134e+00 -2.10916e+01
       O  2.37855e+01 -2.55592e+01  2.81932e+01
       H  2.40764e+01 -2.47434e+01  2.86979e+01
       H  2.30266e+01 -2.52582e+01  2.77086e+01
       O -1.93971e+01 -1.08970e+01 -1.62389e+00
       H -1.96278e+01 -1.11936e+01 -7.40411e-01
       H -1.94484e+01 -9.90788e+00 -1.54683e+00
       O  1.99466e+01 -2.67325e+01 -1.97965e+01
       H  2.05015e+01 -2.62084e+01 -2.04575e+01
       H  2.03048e+01 -2.63476e+01 -1.89746e+01
       O -1.18841e+01 -1.82967e+01 -2.27877e+00
       H -1.18518e+01 -1.82105e+01 -3.24271e+00
       H -1.28256e+01 -1.81424e+01 -2.11583e+00
       O  1.86931e+01 -1.87355e+01 -1.67016e+00
       H  1.82117e+01 -1.95231e+01 -2.12974e+00
       H  1.86106e+01 -1.80595e+01 -2.35333e+00
       O -3.17176e+01 -1.13809e+01 -3.46796e+00
       H -3.15493e+01 -1.17470e+01 -4.34812e+00
       H -3.26370e+01 -1.17143e+01 -3.21684e+00
       O  1.10443e+01 -2.85125e+01 -8.08446e+00
       H  1.04175e+01 -2.90252e+01 -8.61974e+00
       H  1.05339e+01 -2.82084e+01 -7.36174e+00
       O  7.83929e+00  1.52418e+01 -1.03909e+01
       H  8.78850e+00  1.55270e+01 -1.04054e+01
       H  7.59771e+00  1.56071e+01 -9.53582e+00
       O -4.30567e+01 -1.05610e+01 -4.97774e+00
       H -4.33356e+01 -1.02335e+01 -5.76718e+00
       H -4.27796e+01 -1.14280e+01 -5.35316e+00
       O  8.77608e-01 -2.25536e+01 -3.10816e+01
       H  3.38339e-01 -2.18246e+01 -3.13204e+01
       H  3.77692e-01 -2.28842e+01 -3.02502e+01
       O  6.41639e-01 -9.60698e+00 -1.02500e+01
       H  9.49447e-01 -1.05575e+01 -1.04365e+01
       H  1.84196e-01 -9.85273e+00 -9.44077e+00
       O -6.35374e+00 -1.72318e+01  1.04926e-01
       H -6.75630e+00 -1.64681e+01 -2.37067e-01
       H -6.82550e+00 -1.78379e+01 -5.20313e-01
       O -1.54753e+00 -1.27627e+01 -3.07252e+01
       H -1.13276e+00 -1.36369e+01 -3.08186e+01
       H -2.45394e+00 -1.28619e+01 -3.11349e+01
       O -7.23989e+00 -1.92443e+01 -1.25155e+01
       H -6.97241e+00 -1.83764e+01 -1.21749e+01
       H -8.09736e+00 -1.92878e+01 -1.20605e+01
       O -6.41500e+00  1.90232e+01  5.07569e+00
       H -5.86323e+00  1.82970e+01  5.43981e+00
       H -5.89732e+00  1.92576e+01  4.30157e+00
       O -2.71798e+01 -8.12521e+00 -2.48341e+00
       H -2.63092e+01 -7.82550e+00 -2.81883e+00
       H -2.78514e+01 -8.14382e+00 -3.10937e+00
       O -2.96019e+01 -4.50436e+00 -7.19446e+00
       H -3.02050e+01 -4.80868e+00 -6.46902e+00
       H -2.99393e+01 -5.01208e+00 -7.97650e+00
       O  2.85680e+01 -1.66466e+01 -2.21024e+01
       H  2.79813e+01 -1.61909e+01 -2.14778e+01
       H  2.92214e+01 -1.59834e+01 -2.23059e+01
       O -1.94394e+01 -1.17163e+01 -1.39545e+01
       H -1.97707e+01 -1.14317e+01 -1.47876e+01
       H -1.85371e+01 -1.13821e+01 -1.39099e+01
       O -7.11949e+00 -2.48549e+01 -1.68273e+01
       H -7.28236e+00 -2.52436e+01 -1.59157e+01
       H -7.89848e+00 -2.53101e+01 -1.73224e+01
       O -2.08619e+01 -1.34568e+01  2.93220e+01
       H -2.14499e+01 -1.31082e+01  2.86525e+01
       H -2.11543e+01 -1.43531e+01  2.95072e+01
       O -3.05609e+00 -4.28975e+01 -1.81014e+01
       H -3.23483e+00 -4.38275e+01 -1.79076e+01
       H -2.38417e+00 -4.28910e+01 -1.87653e+01
       O  7.37128e-01 -4.77929e+00  1.67148e+01
       H  1.17980e+00 -5.42274e+00  1.61837e+01
       H  1.02521e+00 -3.93932e+00  1.62745e+01
       O -1.37046e+01  5.37951e+00 -3.19565e+00
       H -1.29670e+01  5.58458e+00 -3.79603e+00
       H -1.43584e+01  5.21969e+00 -3.86945e+00
       O -2.15267e+01 -4.47624e+00  2.47218e+01
       H -2.06546e+01 -4.10116e+00  2.48593e+01
       H -2.18785e+01 -3.86746e+00  2.40334e+01
       O -1.88062e+01 -1.24637e+01 -1.65586e+01
       H -1.84593e+01 -1.17286e+01 -1.71031e+01
       H -1.96903e+01 -1.25632e+01 -1.70084e+01
       O  2.62304e+00 -1.22462e+01 -2.29631e+01
       H  2.01433e+00 -1.29761e+01 -2.28400e+01
       H  3.39444e+00 -1.26222e+01 -2.34597e+01
       O  9.90455e-01 -1.19300e+01 -2.94025e+01
       H  2.45711e-01 -1.23776e+01 -2.99366e+01
       H  8.17537e-01 -1.23033e+01 -2.85262e+01
       O -8.05843e-01 -2.21955e+01  4.78628e+00
       H -6.26323e-01 -2.23006e+01  5.77051e+00
       H -1.34758e+00 -2.29633e+01  4.69714e+00
       O -2.11492e+01 -1.69038e+01 -1.13227e+01
       H -2.08010e+01 -1.74393e+01 -1.20434e+01
       H -2.17165e+01 -1.75943e+01 -1.08997e+01
       O -2.84532e+01 -2.42559e+01  1.86107e+01
       H -2.89588e+01 -2.36773e+01  1.91786e+01
       H -2.81212e+01 -2.48869e+01  1.92911e+01
       O -1.46318e+01 -2.52961e+01 -6.40164e+00
       H -1.37235e+01 -2.53797e+01 -6.01599e+00
       H -1.46403e+01 -2.61653e+01 -6.91529e+00
       O -1.75343e+00 -5.00415e+00 -3.78538e+01
       H -2.32076e+00 -4.88052e+00 -3.86225e+01
       H -9.76300e-01 -4.45940e+00 -3.81481e+01
       O -7.43337e+00  6.55038e+00 -1.14646e+01
       H -8.16920e+00  5.90401e+00 -1.12731e+01
       H -6.92729e+00  6.42782e+00 -1.06263e+01
       O -1.03292e+01 -2.43570e+01 -1.64217e+01
       H -1.08778e+01 -2.35362e+01 -1.62899e+01
       H -9.52802e+00 -2.40468e+01 -1.60602e+01
       O  1.41897e+01 -2.18519e+01 -1.38558e+01
       H  1.47138e+01 -2.24990e+01 -1.33612e+01
       H  1.41573e+01 -2.11517e+01 -1.31734e+01
       O -1.10027e+01 -3.34487e+00 -3.80399e+01
       H -1.09370e+01 -2.66253e+00  1.01436e+01
       H -1.11280e+01 -4.15132e+00 -3.74873e+01
       O  1.59751e+01 -2.86014e+01 -1.26866e+01
       H  1.57729e+01 -2.82435e+01 -1.35747e+01
       H  1.69000e+01 -2.88929e+01 -1.29059e+01
       O -2.20298e+01 -1.00368e+01 -2.22705e+01
       H -2.16037e+01 -9.14509e+00 -2.26103e+01
       H -2.22912e+01 -9.78836e+00 -2.14474e+01
       O -2.48269e+01 -2.61085e+01 -1.58326e+01
       H -2.41509e+01 -2.63263e+01 -1.64339e+01
       H -2.42920e+01 -2.60393e+01 -1.50113e+01
       O -3.34506e-02 -1.30525e+01  1.04991e+01
       H  6.20626e-01 -1.26155e+01  9.91428e+00
       H -2.57286e-01 -1.39331e+01  1.01567e+01
       O -1.33096e+01 -1.56343e+01  4.13227e-01
       H -1.32465e+01 -1.63089e+01  1.13124e+00
       H -1.39048e+01 -1.49000e+01  7.35245e-01
       O  5.37247e+00 -1.64888e+01 -1.29007e+01
       H  4.49799e+00 -1.59904e+01 -1.28500e+01
       H  5.12471e+00 -1.72762e+01 -1.24807e+01
       O  8.32236e+00 -8.21128e+00 -1.81941e+01
       H  8.55883e+00 -7.45692e+00 -1.76281e+01
       H  7.79814e+00 -7.83391e+00 -1.89220e+01
       O -2.20357e+01  2.13462e+00 -1.17889e+01
       H -2.12109e+01  2.44909e+00 -1.13320e+01
       H -2.16438e+01  1.45779e+00 -1.22932e+01
       O -1.37701e+01 -8.73288e+00 -2.76220e+01
       H -1.33191e+01 -8.58003e+00 -2.67666e+01
       H -1.45231e+01 -8.10355e+00 -2.75243e+01
       O -1.49226e+01 -1.25048e+01 -2.69501e+01
       H -1.58958e+01 -1.23669e+01 -2.70415e+01
       H -1.47707e+01 -1.23843e+01 -2.59960e+01
       O -6.52419e+00 -1.22611e+01 -2.54139e+01
       H -6.85305e+00 -1.14031e+01 -2.50210e+01
       H -7.16338e+00 -1.29376e+01 -2.52440e+01
       O -1.22161e+01 -3.25586e+00 -6.21667e+00
       H -1.27534e+01 -2.77755e+00 -5.50012e+00
       H -1.17001e+01 -3.82886e+00 -5.61200e+00
       O  6.30194e+00 -1.22982e+01 -1.93620e+01
       H  5.56961e+00 -1.17480e+01 -1.90887e+01
       H  7.11894e+00 -1.19224e+01 -1.89290e+01
       O -1.54700e+01 -1.05943e+01  8.16258e+00
       H -1.60997e+01 -1.10249e+01  7.51821e+00
       H -1.56182e+01 -9.59816e+00  7.95712e+00
       O -2.19083e+01 -2.15855e+00  4.75636e-02
       H -2.13218e+01 -2.93598e+00 -2.07535e-02
       H -2.27361e+01 -2.56158e+00  2.84642e-01
       O  1.04723e+00 -1.49604e+01 -2.32817e+01
       H  9.03528e-01 -1.58491e+01 -2.35403e+01
       H  2.52836e-01 -1.45688e+01 -2.36947e+01
       O -3.58719e+00 -1.90243e+01 -1.29604e+01
       H -3.24607e+00 -1.97694e+01 -1.34717e+01
       H -3.61559e+00 -1.82371e+01 -1.35315e+01
       O  3.08748e+00  3.02769e+01  5.38961e+00
       H  2.24771e+00  3.06668e+01  5.57153e+00
       H  2.86680e+00  2.97703e+01  4.61582e+00
       O -8.72778e+00 -5.41934e+00 -3.46257e+01
       H -9.40473e+00 -5.94012e+00 -3.41617e+01
       H -8.33431e+00 -6.14002e+00 -3.51077e+01
       O -6.64373e+00  2.14260e+01  9.67753e-01
       H -6.85239e+00  2.22985e+01  1.38963e+00
       H -7.50093e+00  2.11413e+01  7.76813e-01
       O  9.87539e-01 -4.72885e+00 -9.21704e+00
       H  7.78941e-01 -3.75163e+00 -9.17138e+00
       H  1.17721e+00 -4.80276e+00 -1.01651e+01
       O  5.65174e+00 -1.12206e+01 -8.01920e-01
       H  4.85756e+00 -1.16091e+01 -1.24327e+00
       H  5.10822e+00 -1.07666e+01 -1.03208e-01
       O -8.48855e-01 -7.82363e+00  4.14097e+00
       H -1.21604e+00 -8.65231e+00  4.36623e+00
       H -1.22827e+00 -7.75397e+00  3.20248e+00
       O -1.77582e+01 -1.88179e+00  1.47818e+01
       H -1.70031e+01 -1.44029e+00  1.51787e+01
       H -1.79636e+01 -2.64904e+00  1.53908e+01
       O -2.17541e+01 -1.04925e+01 -7.73087e+00
       H -2.13614e+01 -9.73021e+00 -8.20529e+00
       H -2.25995e+01 -1.00176e+01 -7.44455e+00
       O  1.06368e+01 -8.93518e+00 -1.25990e+01
       H  1.12882e+01 -8.54901e+00 -1.19772e+01
       H  1.01258e+01 -9.33436e+00 -1.19093e+01
       O -1.25973e+01 -2.41008e+01 -9.09370e+00
       H -1.25992e+01 -2.34756e+01 -8.34077e+00
       H -1.21797e+01 -2.48995e+01 -8.66698e+00
       O -3.87539e+01 -2.60607e+01  2.58617e+01
       H -3.80679e+01 -2.56622e+01  2.52847e+01
       H -3.80944e+01 -2.64902e+01  2.64001e+01
       O  2.19454e+01  2.71652e+01  2.46270e+01
       H  2.24114e+01  2.64992e+01  2.40253e+01
       H  2.11664e+01  2.74420e+01  2.40800e+01
       O  4.72553e-01 -9.37717e+00 -1.72281e+01
       H  2.00096e-01 -1.00704e+01 -1.65355e+01
       H  9.35270e-01 -8.76459e+00 -1.66371e+01
       O -9.19968e+00 -1.53428e+01 -1.05822e+01
       H -8.95845e+00 -1.51629e+01 -9.65387e+00
       H -1.01403e+01 -1.55593e+01 -1.03759e+01
       O -1.75624e+01 -6.70998e-01  8.22476e+00
       H -1.77331e+01  1.44703e-01  8.68216e+00
       H -1.73451e+01 -4.53011e-01  7.27882e+00
       O -1.26538e+01 -1.67118e+01 -2.61030e+01
       H -1.21679e+01 -1.65027e+01 -2.69302e+01
       H -1.21368e+01 -1.74476e+01 -2.56942e+01
       O -1.25556e+01 -2.07218e+01 -2.29123e+01
       H -1.18632e+01 -2.03223e+01 -2.23752e+01
       H -1.21533e+01 -2.15967e+01 -2.30907e+01
       O -6.02578e+00 -1.17417e+01 -1.42789e+01
       H -6.71539e+00 -1.12637e+01 -1.46646e+01
       H -5.39818e+00 -1.10181e+01 -1.40952e+01
       O -1.25561e+01 -1.49755e+01 -1.90470e+01
       H -1.19303e+01 -1.44526e+01 -1.84984e+01
       H -1.19066e+01 -1.57096e+01 -1.90932e+01
       O -1.44217e+01 -2.39126e+01 -1.29897e+01
       H -1.45731e+01 -2.44233e+01 -1.21515e+01
       H -1.50666e+01 -2.32210e+01 -1.31440e+01
       O -1.22115e+01 -1.91776e+01 -1.53161e+01
       H -1.24708e+01 -1.89337e+01 -1.62095e+01
       H -1.29193e+01 -1.97915e+01 -1.52235e+01
       O -7.02006e+00 -1.67419e+01 -1.13035e+01
       H -6.51824e+00 -1.64185e+01 -1.04875e+01
       H -7.87321e+00 -1.63767e+01 -1.09706e+01
       O  2.46157e+01 -1.90579e+01 -1.02865e+01
       H  2.38080e+01 -1.88006e+01 -9.81508e+00
       H  2.48876e+01 -1.97665e+01 -9.63754e+00
       O -6.76138e+00 -2.87692e+01 -7.27070e-01
       H -6.20683e+00 -2.92881e+01 -1.37258e+00
       H -6.60535e+00 -2.78828e+01 -1.09965e+00
       O -1.55418e+01 -2.51603e+01  6.31595e+00
       H -1.49478e+01 -2.48047e+01  5.71094e+00
       H -1.60177e+01 -2.43542e+01  6.51698e+00
       O -1.34691e+01 -5.87058e+00  1.16274e+00
       H -1.28806e+01 -5.13301e+00  1.51715e+00
       H -1.44269e+01 -5.72708e+00  1.31732e+00
       O -1.25740e+01  4.87257e+00 -1.65510e+01
       H -1.29255e+01  5.16159e+00 -1.73975e+01
       H -1.33184e+01  4.31126e+00 -1.64391e+01
       O  2.64952e+01 -1.07597e+01  3.92309e+00
       H  2.63108e+01 -1.16770e+01  3.67486e+00
       H  2.65235e+01 -1.07363e+01  4.87737e+00
       O  1.68557e+01 -1.65984e+01 -2.11636e+01
       H  1.66121e+01 -1.74669e+01 -2.16568e+01
       H  1.69873e+01 -1.60071e+01 -2.19449e+01
       O  5.53354e+00 -2.77045e+01 -5.08621e+00
       H  4.64535e+00 -2.77666e+01 -5.51622e+00
       H  5.66773e+00 -2.86074e+01 -4.76700e+00
       O -2.24940e+01 -1.25517e+01 -2.04321e+01
       H -2.18650e+01 -1.18969e+01 -2.07228e+01
       H -2.32497e+01 -1.26515e+01 -2.10584e+01
       O -4.89491e+00 -8.10949e+00 -1.37972e+01
       H -4.41688e+00 -8.89611e+00 -1.41783e+01
       H -4.55038e+00 -8.14076e+00 -1.29184e+01
       O -2.53267e+00 -5.62548e+00 -1.16022e+01
       H -3.43791e+00 -5.19944e+00 -1.16201e+01
       H -2.45288e+00 -5.64405e+00 -1.06394e+01
       O -7.73987e+00 -3.96181e+00 -4.01520e+00
       H -8.24607e+00 -3.16688e+00 -3.94103e+00
       H -7.64817e+00 -4.01703e+00 -4.95900e+00
       O -1.08184e+01  1.50300e+01 -8.41799e+00
       H -9.93329e+00  1.47292e+01 -8.63584e+00
       H -1.09906e+01  1.55942e+01 -9.22101e+00
       O -1.70337e+00 -5.26361e+00 -2.94460e+01
       H -9.79532e-01 -5.20196e+00 -3.00882e+01
       H -2.23594e+00 -5.95748e+00 -2.98729e+01
       O -2.57825e+01 -9.27367e+00  2.58897e+01
       H -2.53523e+01 -9.91950e+00  2.64925e+01
       H -2.60501e+01 -8.62147e+00  2.64957e+01
       O  2.26169e+01 -1.42455e+01  4.40059e+01
       H  2.31705e+01 -1.36067e+01  4.35422e+01
       H  2.17402e+01 -1.37736e+01  4.39901e+01
       O -1.14553e+01 -5.44916e+00 -1.69017e+01
       H -1.07851e+01 -6.01516e+00 -1.74157e+01
       H -1.15931e+01 -6.04099e+00 -1.61442e+01
       O -1.63533e+01 -1.38219e+01 -1.67162e+01
       H -1.72736e+01 -1.34891e+01 -1.65907e+01
       H -1.63573e+01 -1.44005e+01 -1.74368e+01
       O -2.29049e+01 -8.10359e+00  2.94883e+01
       H -2.31831e+01 -8.48114e+00  3.03267e+01
       H -2.37114e+01 -7.54171e+00  2.92731e+01
       O -1.10081e+01 -1.27821e+01 -2.84626e+01
       H -1.19764e+01 -1.27152e+01 -2.83793e+01
       H -1.08659e+01 -1.34640e+01 -2.90328e+01
       O -7.98730e+00 -1.55919e+01 -1.95430e+01
       H -7.46464e+00 -1.59778e+01 -2.03233e+01
       H -7.38007e+00 -1.58944e+01 -1.87873e+01
       O -1.23667e+01  1.97300e+01 -2.14200e+00
       H -1.18525e+01  1.99879e+01 -1.32569e+00
       H -1.32369e+01  1.97994e+01 -1.73431e+00
       O -1.45338e+01 -3.74773e+00 -1.40415e+00
       H -1.42593e+01 -3.48650e+00 -5.09146e-01
       H -1.54497e+01 -4.07648e+00 -1.21723e+00
       O -1.11082e+01 -4.68897e+00  2.35118e+00
       H -1.06667e+01 -4.59585e+00  1.55056e+00
       H -1.04895e+01 -4.23550e+00  2.99970e+00
       O -5.23604e+00 -2.42658e+01 -2.80517e+01
       H -4.56219e+00 -2.48294e+01 -2.75289e+01
       H -5.02369e+00 -2.34025e+01 -2.77419e+01
       O  8.51178e+00 -2.88024e+00 -7.51675e+00
       H  9.07208e+00 -2.69608e+00 -8.30774e+00
       H  7.66915e+00 -2.79947e+00 -7.88630e+00
       O -6.10729e+00 -2.62134e+00  1.64407e+01
       H -5.53991e+00 -2.32374e+00  1.71611e+01
       H -6.68432e+00 -3.29896e+00  1.69743e+01
       O  2.92705e+01 -1.94046e+01  1.77528e+01
       H  2.89827e+01 -2.02849e+01  1.75789e+01
       H  2.98970e+01 -1.94846e+01  1.85097e+01
       O -2.86343e+01 -1.31249e+01  5.89972e+00
       H -2.88385e+01 -1.24025e+01  5.18914e+00
       H -2.92874e+01 -1.37379e+01  5.50063e+00
       O -1.14131e+01  2.42003e+01 -1.13674e+01
       H -1.04951e+01  2.40801e+01 -1.10851e+01
       H -1.18890e+01  2.42063e+01 -1.04929e+01
       O -1.71840e+01 -9.90457e+00  1.42927e+01
       H -1.74196e+01 -9.81241e+00  1.52169e+01
       H -1.74910e+01 -9.06701e+00  1.39728e+01
       O  2.26885e+01 -2.71391e+01  1.12481e+01
       H  2.23912e+01 -2.70855e+01  1.22037e+01
       H  2.17905e+01 -2.69306e+01  1.09275e+01
       O  1.35139e+01 -3.10020e+01 -1.64047e+01
       H  1.26818e+01 -3.13902e+01 -1.62156e+01
       H  1.38533e+01 -3.09341e+01 -1.54836e+01
       O -4.00709e+00 -1.20244e+01 -3.91865e+00
       H -3.82729e+00 -1.27460e+01 -3.35247e+00
       H -4.97596e+00 -1.20181e+01 -3.91591e+00
       O  1.23136e+01 -1.53136e+01 -2.80664e+00
       H  1.24555e+01 -1.53129e+01 -1.85632e+00
       H  1.23282e+01 -1.62652e+01 -3.00622e+00
       O -4.97562e+00  1.75440e+01 -2.17343e+01
       H -5.15945e+00  1.84508e+01  2.54487e+01
       H -3.99420e+00  1.74525e+01  2.56607e+01
       O  2.00235e+01 -2.28903e+01  2.59106e+01
       H  1.94171e+01 -2.35278e+01 -2.11653e+01
       H  1.94188e+01 -2.24665e+01 -2.21303e+01
       O  1.76476e+00  1.58026e+01  3.11931e+00
       H  9.25211e-01  1.55601e+01  2.68263e+00
       H  1.39567e+00  1.63117e+01  3.86841e+00
       O -1.13761e+01  2.03600e+01  1.98285e+01
       H -1.15336e+01  1.96917e+01  2.06441e+01
       H -1.10783e+01  1.98517e+01  1.90805e+01
       O  2.57421e+01 -7.66583e+00  4.53062e+01
       H  2.65949e+01 -7.63188e+00  4.57707e+01
       H  2.50693e+01 -7.45460e+00  4.59261e+01
       O  1.61478e+01 -1.38795e+01 -1.83215e+01
       H  1.53936e+01 -1.42315e+01 -1.77772e+01
       H  1.63888e+01 -1.30536e+01 -1.78189e+01
       O -4.82572e+00 -1.35857e+01 -1.74625e+01
       H -5.17654e+00 -1.30673e+01 -1.82629e+01
       H -4.78062e+00 -1.44927e+01 -1.78970e+01
       O -4.92893e+00 -1.07184e+01 -3.01898e-02
       H -3.91812e+00  3.68580e+01  3.66534e-02
       H -5.06995e+00 -9.71221e+00  9.93639e-02
       O  2.86613e+01 -3.48940e+00  2.48492e+01
       H  2.90097e+01 -4.00513e+00  2.41090e+01
       H  2.93760e+01 -3.66114e+00  2.54778e+01
       O -2.11975e+01  5.55367e+00 -4.98394e+00
       H -2.10540e+01  4.61891e+00 -5.09856e+00
       H -2.19740e+01  5.69026e+00 -4.46421e+00
       O  1.88612e+01 -4.06587e+00 -1.28207e+01
       H  1.79372e+01 -4.00295e+00 -1.24861e+01
       H  1.92880e+01 -4.83195e+00 -1.23531e+01
       O -1.34231e+01 -9.20906e+00  2.93232e+01
       H -1.37765e+01 -9.99229e+00  2.88862e+01
       H -1.27173e+01 -9.68238e+00  2.98218e+01
       O -1.59080e+01 -1.20003e+01  8.59798e-01
       H -1.60782e+01 -1.29789e+01  1.04358e+00
       H -1.56631e+01 -1.17900e+01  1.80125e+00
       O  5.54655e+00 -2.33483e+01 -1.21215e+01
       H  4.86681e+00 -2.27607e+01 -1.17803e+01
       H  4.89275e+00 -2.41384e+01 -1.21813e+01
       O -2.41797e+01 -9.77199e+00 -6.63266e+00
       H -2.47168e+01 -9.01388e+00 -6.65164e+00
       H -2.36870e+01 -9.52125e+00 -5.83908e+00
       O -1.15825e+01 -2.33196e+01  1.91278e+01
       H -1.24308e+01 -2.30616e+01  1.94716e+01
       H -1.12851e+01 -2.39618e+01  1.98293e+01
       O  5.94332e+00 -3.30251e+01  4.63670e-01
       H  6.48719e+00 -3.23046e+01  9.18344e-01
       H  6.62832e+00 -3.36938e+01  3.20900e-01
       O -9.34284e+00 -1.83601e+01  2.01340e+01
       H -9.51437e+00 -1.91677e+01  1.96089e+01
       H -9.99779e+00 -1.77894e+01  1.97341e+01
       O  3.79335e+00 -8.91347e+00 -1.47270e+01
       H  4.00311e+00 -9.30909e+00 -1.55922e+01
       H  2.93793e+00 -8.38579e+00 -1.49122e+01
       O -1.13582e+01 -1.32956e+01 -1.43972e+01
       H -1.05312e+01 -1.37108e+01 -1.41969e+01
       H -1.13781e+01 -1.25140e+01 -1.37793e+01
       O  1.90579e+01 -2.54448e+01 -1.25321e+01
       H  1.90861e+01 -2.45126e+01 -1.26794e+01
       H  1.97661e+01 -2.56017e+01 -1.17914e+01
       O -3.24666e+00 -1.92709e+01 -6.60101e+00
       H -3.76825e+00 -1.97538e+01 -7.21860e+00
       H -3.72491e+00 -1.94461e+01 -5.77061e+00
       O -1.94024e+01 -1.41848e+01 -1.29441e+01
       H -2.01321e+01 -1.42014e+01 -1.23381e+01
       H -1.94078e+01 -1.32020e+01 -1.31412e+01
       O  2.19950e+00 -2.49557e+01 -3.20048e+01
       H  1.73548e+00 -2.41102e+01 -3.18264e+01
       H  1.40333e+00 -2.54269e+01 -3.23620e+01
       O  1.37208e+01 -2.80297e+01 -2.37760e+01
       H  1.45544e+01 -2.75383e+01 -2.34245e+01
       H  1.36402e+01 -2.76811e+01 -2.46716e+01
       O  1.39152e+01  2.56997e+01  1.59053e+01
       H  1.31309e+01  2.58101e+01  1.64828e+01
       H  1.43120e+01  2.49090e+01  1.63180e+01
       O -1.04117e+01 -8.69305e-01 -1.04291e+01
       H -1.04097e+01 -1.08021e+00 -1.13687e+01
       H -1.13092e+01 -1.27318e+00 -1.01471e+01
       O -3.79691e+00 -4.28109e+01 -4.75823e+00
       H -3.54860e+00  5.27821e+00 -4.09054e+00
       H -2.96746e+00 -4.33491e+01 -4.81173e+00
       O -4.39096e+00 -1.96068e+01 -2.87604e+01
       H -4.84447e+00 -1.99750e+01 -2.80260e+01
       H -4.00295e+00 -1.88595e+01 -2.83674e+01
       O -1.46474e+01 -4.01913e+01  7.50174e+00
       H -1.47260e+01 -3.92478e+01  7.26515e+00
       H -1.36988e+01 -4.03578e+01  7.56957e+00
       O  3.49822e+00  5.49988e+00  1.22524e+00
       H  3.11586e+00  4.64148e+00  8.68982e-01
       H  3.70581e+00  5.93340e+00  4.67667e-01
       O -2.38310e+01 -3.29288e+00 -2.71635e+00
       H -2.34343e+01 -4.03967e+00 -3.24978e+00
       H -2.42437e+01 -3.85542e+00 -2.02834e+00
       O  3.19882e+01 -1.86893e+01  1.18802e+01
       H  3.23636e+01 -1.81369e+01  1.25613e+01
       H  3.10441e+01 -1.84805e+01  1.20392e+01
       O -1.26730e+00 -1.02109e+01  3.14433e+00
       H -1.33667e+00 -1.02784e+01  2.17233e+00
       H -2.05866e+00 -1.06650e+01  3.46341e+00
       O  1.36095e+01 -2.05490e+01 -5.77778e+00
       H  1.32018e+01 -2.08810e+01 -6.56094e+00
       H  1.30816e+01  2.65005e+01 -5.09592e+00
       O -1.20324e+01  2.28804e+01  1.51324e+00
       H -1.27856e+01  2.33473e+01  1.17475e+00
       H -1.17608e+01  2.35022e+01  2.20769e+00
       O -7.24004e+00 -1.03195e+01 -2.82606e+01
       H -6.80731e+00 -1.11444e+01 -2.84655e+01
       H -6.69068e+00 -9.93097e+00 -2.75475e+01
       O  2.55444e+01 -1.91145e+01  2.32251e+01
       H  2.50968e+01 -1.94523e+01  2.24508e+01
       H  2.64620e+01 -1.92129e+01  2.29459e+01
       O  3.91582e+00  7.01426e+00  3.46966e+00
       H  3.70747e+00  6.37027e+00  2.74835e+00
       H  3.20681e+00  7.61773e+00  3.38845e+00
       O  2.05658e+01 -1.33743e+01 -3.29912e+01
       H  1.98078e+01 -1.38308e+01 -3.26212e+01
       H  2.03903e+01 -1.34913e+01 -3.39305e+01
       O -8.74291e+00  2.67150e+01 -3.58445e+00
       H -8.18198e+00  2.59139e+01 -3.77923e+00
       H -9.26528e+00  2.63109e+01 -2.83079e+00
       O -4.91616e+00 -1.79041e+01 -2.45397e+01
       H -5.42267e+00 -1.84350e+01 -2.51250e+01
       H -5.44922e+00 -1.78154e+01 -2.37930e+01
       O  7.20906e-01 -1.46861e+00 -2.00861e+01
       H  8.60266e-01 -1.84146e+00 -1.92335e+01
       H  1.62485e+00 -1.31239e+00 -2.03573e+01
       O -5.25264e+00 -5.63507e+00  1.62635e+01
       H -4.62593e+00 -5.16597e+00  1.56160e+01
       H -5.73283e+00 -6.12152e+00  1.55575e+01
       O -8.87675e+00 -2.36779e+01 -2.71894e+01
       H -8.47933e+00 -2.30706e+01 -2.78386e+01
       H -8.39808e+00 -2.45316e+01 -2.72819e+01
       O  1.34200e+01 -5.59864e+00 -2.94753e+01
       H  1.37350e+01 -5.88176e+00 -3.03928e+01
       H  1.41561e+01 -5.01486e+00 -2.92951e+01
       O -7.94956e+00 -3.47467e+00  1.79769e+01
       H -8.68879e+00 -2.84460e+00  1.81680e+01
       H -8.37717e+00 -4.36145e+00  1.79898e+01
       O -9.82642e+00 -1.86240e+01 -1.16254e+01
       H -9.94644e+00 -1.83191e+01 -1.25525e+01
       H -1.03383e+01 -1.79196e+01 -1.11736e+01
       O -2.08455e+01 -1.48315e+01  2.66097e+01
       H -2.16252e+01 -1.49928e+01  2.71977e+01
       H -2.08593e+01 -1.39093e+01  2.64203e+01
       O  4.20660e+00 -1.06180e+01 -1.21256e+01
       H  4.38273e+00 -9.73463e+00 -1.17594e+01
       H  4.52206e+00 -1.04582e+01 -1.30059e+01
       O -5.68800e+00  3.35315e+00 -1.09158e+01
       H -5.96168e+00  3.72382e+00 -1.17561e+01
       H -4.75047e+00  3.28335e+00 -1.09878e+01
       O -6.39593e+00  2.30851e+00 -3.34224e+01
       H -5.84705e+00  1.60027e+00 -3.32036e+01
       H -6.19028e+00  3.05544e+00 -3.27941e+01
       O -2.83619e-01 -1.96531e+01 -1.37114e+01
       H -1.14131e+00 -2.01320e+01 -1.38407e+01
       H  2.12255e-01 -1.98072e+01 -1.45118e+01
       O -5.76500e+00 -9.12390e+00 -2.63695e+01
       H -5.29044e+00 -8.29087e+00 -2.61449e+01
       H -5.22297e+00 -9.78108e+00 -2.57691e+01
       O  3.08053e+00 -1.19500e+01 -2.77063e+01
       H  2.56614e+00 -1.16401e+01 -2.68941e+01
       H  2.53638e+00 -1.14139e+01 -2.83311e+01
       O -5.15618e+00  2.69181e+01 -1.14434e+01
       H -5.90580e+00  2.73334e+01 -1.19040e+01
       H -4.39841e+00  2.74213e+01 -1.18956e+01
       O -6.43335e+00 -2.15239e+01 -6.01964e+00
       H -6.56483e+00 -2.10662e+01 -6.85627e+00
       H -6.11655e+00 -2.07393e+01 -5.52946e+00
       O -2.29463e+00  7.36896e+00 -6.43524e+00
       H -3.09095e+00  7.88582e+00 -6.08875e+00
       H -2.15713e+00  6.76532e+00 -5.69735e+00
       O -6.34084e+00 -1.96109e+01 -2.22662e+01
       H -7.05183e+00 -2.01177e+01 -2.17453e+01
       H -6.73697e+00 -1.96133e+01 -2.31550e+01
       O -2.68791e+01 -1.58035e+01 -1.77575e+01
       H -2.75052e+01 -1.57840e+01 -1.85368e+01
       H -2.65809e+01 -1.66529e+01 -1.77441e+01
       O -1.58013e+01 -1.88879e+01 -1.33358e+01
       H -1.50497e+01 -1.91792e+01 -1.28322e+01
       H -1.64192e+01 -1.84881e+01 -1.27117e+01
       O  1.36590e+01  2.25395e+01 -9.74600e+00
       H  1.40595e+01  2.17654e+01 -1.00223e+01
       H  1.42123e+01  2.32224e+01 -1.01446e+01
       O -6.06754e+00  2.18614e+01 -2.16159e+01
       H -6.24310e+00  2.09763e+01 -2.18424e+01
       H -5.16298e+00  2.18079e+01 -2.11732e+01
       O  2.55938e+01 -3.01449e+01  1.59705e+01
       H  2.64103e+01 -2.95130e+01  1.60459e+01
       H  2.60573e+01 -3.08197e+01  1.64690e+01
       O  5.64421e+00 -6.98658e+00 -2.37675e+01
       H  5.92027e+00 -7.46437e+00 -2.29456e+01
       H  5.02995e+00 -7.54384e+00 -2.42300e+01
       O  1.49174e+01  3.15720e+01 -4.02270e+00
       H  1.41929e+01  3.19118e+01 -3.46855e+00
       H  1.57368e+01  3.17779e+01 -3.52901e+00
       O -2.20802e+01 -9.19948e+00 -4.29559e+00
       H -2.20409e+01 -8.66148e+00 -3.50860e+00
       H -2.12200e+01 -9.51341e+00 -4.52790e+00
       O -2.51676e+01  1.52855e+00  2.69967e+00
       H -2.59866e+01  1.83753e+00  2.29602e+00
       H -2.45661e+01  1.44566e+00  2.00010e+00
       O -1.09826e+01 -9.39725e+00 -1.66295e+01
       H -1.00847e+01 -9.55330e+00 -1.63752e+01
       H -1.06441e+01 -8.69005e+00 -1.72023e+01
       O -9.51014e+00  9.73424e+00  1.72629e+01
       H -9.48282e+00  1.03903e+01  1.65682e+01
       H -9.59837e+00  8.91786e+00  1.67427e+01
       O  6.56772e+00  2.64798e+01 -3.94488e+00
       H  7.18651e+00 -2.17178e+01 -4.28223e+00
       H  7.10277e+00  2.67449e+01 -3.11034e+00
       O -1.77968e+01 -1.55001e+01 -7.94964e+00
       H -1.75916e+01 -1.64498e+01 -8.15270e+00
       H -1.87908e+01 -1.55345e+01 -8.00000e+00
       O -1.78062e+01  1.77428e+01 -8.89471e+00
       H -1.83553e+01  1.70092e+01 -9.25742e+00
       H -1.83554e+01  1.86006e+01 -8.84920e+00
       O -1.60408e+01 -1.10748e+01 -6.10069e+00
       H -1.59335e+01 -1.20517e+01 -6.27248e+00
       H -1.62126e+01 -1.07512e+01 -6.98843e+00
       O -8.35505e+00 -9.67883e+00 -1.59049e+01
       H -8.46684e+00 -8.99757e+00 -1.52398e+01
       H -7.41946e+00 -9.47018e+00 -1.61722e+01
       O -8.28381e+00 -1.60458e+01 -2.32303e+01
       H -9.15261e+00 -1.63971e+01 -2.29754e+01
       H -8.26817e+00 -1.61183e+01 -2.42568e+01
       O -8.14301e+00 -2.48151e+01 -1.97759e+01
       H -8.71364e+00 -2.56086e+01 -1.97942e+01
       H -7.44414e+00 -2.50971e+01 -2.04615e+01
       O  1.50220e+01 -8.09985e+00 -1.58311e+01
       H  1.43264e+01 -7.45396e+00 -1.57565e+01
       H  1.47287e+01 -8.77806e+00 -1.65152e+01
       O -7.68602e+00 -7.26459e+00 -2.67986e+01
       H -7.12216e+00 -8.04831e+00 -2.68146e+01
       H -7.57071e+00 -6.95690e+00 -2.58995e+01
       O -2.65167e+01 -4.18876e+00 -1.74448e+01
       H -2.69309e+01 -3.33139e+00 -1.75343e+01
       H -2.71510e+01 -4.69075e+00 -1.68621e+01
       O -8.82660e+00 -9.89188e+00 -9.10601e-01
       H -9.03865e+00 -1.03873e+01 -1.26539e-01