4
# CELL(abcABC): 1000.00000  1000.00000  1000.00000    90.00000    90.00000    90.00000  Step:         427  Bead:       0 positions{angstrom}  cell{angstrom}
       O -3.14918e+00  1.06866e+00  3.51001e-01
       H -2.68834e+00  2.02460e-01  3.09101e-01
       H -2.93851e+00  1.49977e+00  1.18942e+00
       H -3.77095e+00  1.40501e+00 -3.84449e-01
