4
# CELL(abcABC): 1000.00000  1000.00000  1000.00000    90.00000    90.00000    90.00000  Step:           0  Bead:       0 positions{angstrom}  cell{angstrom}
       O -3.14918e+00  1.06866e+00  3.51001e-01
       H -2.68834e+00  2.02460e-01  3.09101e-01
       H -2.93851e+00  1.49977e+00  1.18942e+00
       H -3.77095e+00  1.40501e+00 -3.84449e-01
4
# CELL(abcABC): 1000.00000  1000.00000  1000.00000    90.00000    90.00000    90.00000  Step:           1  Bead:       0 positions{angstrom}  cell{angstrom}
       O -3.14747e+00  1.06886e+00  3.50462e-01
       H -2.69898e+00  1.97472e-01  3.13751e-01
       H -2.93827e+00  1.49840e+00  1.18949e+00
       H -3.78768e+00  1.40818e+00 -3.80612e-01
4
# CELL(abcABC): 1000.00000  1000.00000  1000.00000    90.00000    90.00000    90.00000  Step:           2  Bead:       0 positions{angstrom}  cell{angstrom}
       O -3.14581e+00  1.06888e+00  3.49926e-01
       H -2.71151e+00  1.96974e-01  3.19678e-01
       H -2.93624e+00  1.49566e+00  1.18747e+00
       H -3.80347e+00  1.41112e+00 -3.76017e-01
4
# CELL(abcABC): 1000.00000  1000.00000  1000.00000    90.00000    90.00000    90.00000  Step:           3  Bead:       0 positions{angstrom}  cell{angstrom}
       O -3.14412e+00  1.06881e+00  3.49320e-01
       H -2.72483e+00  1.98900e-01  3.28065e-01
       H -2.93422e+00  1.49291e+00  1.18430e+00
       H -3.81905e+00  1.41305e+00 -3.71601e-01
4
# CELL(abcABC): 1000.00000  1000.00000  1000.00000    90.00000    90.00000    90.00000  Step:           4  Bead:       0 positions{angstrom}  cell{angstrom}
       O -3.14250e+00  1.06872e+00  3.48789e-01
       H -2.73917e+00  2.02187e-01  3.35911e-01
       H -2.93124e+00  1.49006e+00  1.17932e+00
       H -3.83346e+00  1.41399e+00 -3.66052e-01
4
# CELL(abcABC): 1000.00000  1000.00000  1000.00000    90.00000    90.00000    90.00000  Step:           5  Bead:       0 positions{angstrom}  cell{angstrom}
       O -3.14087e+00  1.06852e+00  3.48277e-01
       H -2.75448e+00  2.06758e-01  3.43899e-01
       H -2.92848e+00  1.48804e+00  1.17458e+00
       H -3.84668e+00  1.41464e+00 -3.61158e-01
4
# CELL(abcABC): 1000.00000  1000.00000  1000.00000    90.00000    90.00000    90.00000  Step:           6  Bead:       0 positions{angstrom}  cell{angstrom}
       O -3.13930e+00  1.06848e+00  3.47758e-01
       H -2.76920e+00  2.11290e-01  3.51227e-01
       H -2.92580e+00  1.48446e+00  1.16860e+00
       H -3.85965e+00  1.41441e+00 -3.54276e-01
4
# CELL(abcABC): 1000.00000  1000.00000  1000.00000    90.00000    90.00000    90.00000  Step:           7  Bead:       0 positions{angstrom}  cell{angstrom}
       O -3.13798e+00  1.06848e+00  3.46967e-01
       H -2.78129e+00  2.13959e-01  3.60015e-01
       H -2.92260e+00  1.48097e+00  1.16392e+00
       H -3.87163e+00  1.41512e+00 -3.45840e-01
4
# CELL(abcABC): 1000.00000  1000.00000  1000.00000    90.00000    90.00000    90.00000  Step:           8  Bead:       0 positions{angstrom}  cell{angstrom}
       O -3.13702e+00  1.06870e+00  3.46121e-01
       H -2.79068e+00  2.13571e-01  3.68203e-01
       H -2.91755e+00  1.47729e+00  1.15969e+00
       H -3.88262e+00  1.41570e+00 -3.36366e-01
4
# CELL(abcABC): 1000.00000  1000.00000  1000.00000    90.00000    90.00000    90.00000  Step:           9  Bead:       0 positions{angstrom}  cell{angstrom}
       O -3.13638e+00  1.06922e+00  3.45014e-01
       H -2.79808e+00  2.08713e-01  3.77449e-01
       H -2.91048e+00  1.47476e+00  1.15761e+00
       H -3.89240e+00  1.41487e+00 -3.25959e-01
4
# CELL(abcABC): 1000.00000  1000.00000  1000.00000    90.00000    90.00000    90.00000  Step:          10  Bead:       0 positions{angstrom}  cell{angstrom}
       O -3.13603e+00  1.06985e+00  3.43904e-01
       H -2.80348e+00  2.00512e-01  3.85705e-01
       H -2.90221e+00  1.47400e+00  1.15640e+00
       H -3.90088e+00  1.41389e+00 -3.15384e-01
4
# CELL(abcABC): 1000.00000  1000.00000  1000.00000    90.00000    90.00000    90.00000  Step:          11  Bead:       0 positions{angstrom}  cell{angstrom}
       O -3.13593e+00  1.07059e+00  3.42840e-01
       H -2.80706e+00  1.90707e-01  3.92248e-01
       H -2.89426e+00  1.47400e+00  1.15616e+00
       H -3.90689e+00  1.41183e+00 -3.04801e-01
4
# CELL(abcABC): 1000.00000  1000.00000  1000.00000    90.00000    90.00000    90.00000  Step:          12  Bead:       0 positions{angstrom}  cell{angstrom}
       O -3.13618e+00  1.07143e+00  3.41799e-01
       H -2.80816e+00  1.79761e-01  3.97872e-01
       H -2.88554e+00  1.47372e+00  1.15593e+00
       H -3.91039e+00  1.40977e+00 -2.93660e-01
4
# CELL(abcABC): 1000.00000  1000.00000  1000.00000    90.00000    90.00000    90.00000  Step:          13  Bead:       0 positions{angstrom}  cell{angstrom}
       O -3.13670e+00  1.07222e+00  3.40730e-01
       H -2.80854e+00  1.70016e-01  4.02972e-01
       H -2.87485e+00  1.47413e+00  1.15632e+00
       H -3.91249e+00  1.40655e+00 -2.82189e-01
4
# CELL(abcABC): 1000.00000  1000.00000  1000.00000    90.00000    90.00000    90.00000  Step:          14  Bead:       0 positions{angstrom}  cell{angstrom}
       O -3.13743e+00  1.07285e+00  3.39668e-01
       H -2.80738e+00  1.61969e-01  4.07587e-01
       H -2.86319e+00  1.47580e+00  1.15673e+00
       H -3.91369e+00  1.40292e+00 -2.70361e-01
4
# CELL(abcABC): 1000.00000  1000.00000  1000.00000    90.00000    90.00000    90.00000  Step:          15  Bead:       0 positions{angstrom}  cell{angstrom}
       O -3.13820e+00  1.07317e+00  3.38489e-01
       H -2.80847e+00  1.56517e-01  4.13345e-01
       H -2.85197e+00  1.47847e+00  1.15672e+00
       H -3.91164e+00  1.40070e+00 -2.57376e-01
4
# CELL(abcABC): 1000.00000  1000.00000  1000.00000    90.00000    90.00000    90.00000  Step:          16  Bead:       0 positions{angstrom}  cell{angstrom}
       O -3.13906e+00  1.07317e+00  3.37461e-01
       H -2.80917e+00  1.54455e-01  4.17639e-01
       H -2.84110e+00  1.48251e+00  1.15547e+00
       H -3.90817e+00  1.39874e+00 -2.44105e-01
4
# CELL(abcABC): 1000.00000  1000.00000  1000.00000    90.00000    90.00000    90.00000  Step:          17  Bead:       0 positions{angstrom}  cell{angstrom}
       O -3.13983e+00  1.07290e+00  3.36631e-01
       H -2.81000e+00  1.56854e-01  4.20939e-01
       H -2.83178e+00  1.48736e+00  1.15134e+00
       H -3.90445e+00  1.39565e+00 -2.30111e-01
4
# CELL(abcABC): 1000.00000  1000.00000  1000.00000    90.00000    90.00000    90.00000  Step:          18  Bead:       0 positions{angstrom}  cell{angstrom}
       O -3.14053e+00  1.07232e+00  3.36035e-01
       H -2.81273e+00  1.63813e-01  4.23147e-01
       H -2.82210e+00  1.49225e+00  1.14488e+00
       H -3.90030e+00  1.39313e+00 -2.16397e-01
4
# CELL(abcABC): 1000.00000  1000.00000  1000.00000    90.00000    90.00000    90.00000  Step:          19  Bead:       0 positions{angstrom}  cell{angstrom}
       O -3.14127e+00  1.07160e+00  3.35677e-01
       H -2.81570e+00  1.73488e-01  4.24534e-01
       H -2.81408e+00  1.49656e+00  1.13536e+00
       H -3.89355e+00  1.39058e+00 -2.02573e-01
4
# CELL(abcABC): 1000.00000  1000.00000  1000.00000    90.00000    90.00000    90.00000  Step:          20  Bead:       0 positions{angstrom}  cell{angstrom}
       O -3.14198e+00  1.07082e+00  3.35630e-01
       H -2.81886e+00  1.85158e-01  4.23253e-01
       H -2.80785e+00  1.50108e+00  1.12390e+00
       H -3.88544e+00  1.38673e+00 -1.89094e-01
4
# CELL(abcABC): 1000.00000  1000.00000  1000.00000    90.00000    90.00000    90.00000  Step:          21  Bead:       0 positions{angstrom}  cell{angstrom}
       O -3.14275e+00  1.07003e+00  3.35893e-01
       H -2.82221e+00  1.96202e-01  4.19587e-01
       H -2.80069e+00  1.50646e+00  1.11169e+00
       H -3.87692e+00  1.38276e+00 -1.77386e-01
4
# CELL(abcABC): 1000.00000  1000.00000  1000.00000    90.00000    90.00000    90.00000  Step:          22  Bead:       0 positions{angstrom}  cell{angstrom}
       O -3.14364e+00  1.06926e+00  3.36467e-01
       H -2.82588e+00  2.04511e-01  4.15785e-01
       H -2.79177e+00  1.51260e+00  1.09666e+00
       H -3.86815e+00  1.38057e+00 -1.67673e-01
4
# CELL(abcABC): 1000.00000  1000.00000  1000.00000    90.00000    90.00000    90.00000  Step:          23  Bead:       0 positions{angstrom}  cell{angstrom}
       O -3.14464e+00  1.06864e+00  3.37411e-01
       H -2.82812e+00  2.10038e-01  4.10510e-01
       H -2.78193e+00  1.51999e+00  1.08142e+00
       H -3.85989e+00  1.37750e+00 -1.62140e-01
4
# CELL(abcABC): 1000.00000  1000.00000  1000.00000    90.00000    90.00000    90.00000  Step:          24  Bead:       0 positions{angstrom}  cell{angstrom}
       O -3.14577e+00  1.06813e+00  3.38504e-01
       H -2.82818e+00  2.10274e-01  4.04411e-01
       H -2.77129e+00  1.52943e+00  1.06642e+00
       H -3.85239e+00  1.37598e+00 -1.58401e-01
4
# CELL(abcABC): 1000.00000  1000.00000  1000.00000    90.00000    90.00000    90.00000  Step:          25  Bead:       0 positions{angstrom}  cell{angstrom}
       O -3.14699e+00  1.06790e+00  3.39617e-01
       H -2.82664e+00  2.05199e-01  3.98525e-01
       H -2.76035e+00  1.53923e+00  1.05199e+00
       H -3.84565e+00  1.37489e+00 -1.55737e-01
4
# CELL(abcABC): 1000.00000  1000.00000  1000.00000    90.00000    90.00000    90.00000  Step:          26  Bead:       0 positions{angstrom}  cell{angstrom}
       O -3.14827e+00  1.06789e+00  3.40786e-01
       H -2.82374e+00  1.96081e-01  3.91459e-01
       H -2.74829e+00  1.54970e+00  1.03801e+00
       H -3.84021e+00  1.37363e+00 -1.53255e-01
4
# CELL(abcABC): 1000.00000  1000.00000  1000.00000    90.00000    90.00000    90.00000  Step:          27  Bead:       0 positions{angstrom}  cell{angstrom}
       O -3.14970e+00  1.06792e+00  3.42048e-01
       H -2.82016e+00  1.86123e-01  3.83348e-01
       H -2.73530e+00  1.56011e+00  1.02446e+00
       H -3.83405e+00  1.37280e+00 -1.51629e-01
4
# CELL(abcABC): 1000.00000  1000.00000  1000.00000    90.00000    90.00000    90.00000  Step:          28  Bead:       0 positions{angstrom}  cell{angstrom}
       O -3.15108e+00  1.06790e+00  3.43309e-01
       H -2.81732e+00  1.74489e-01  3.74811e-01
       H -2.72086e+00  1.57117e+00  1.01190e+00
       H -3.82948e+00  1.37371e+00 -1.50533e-01
4
# CELL(abcABC): 1000.00000  1000.00000  1000.00000    90.00000    90.00000    90.00000  Step:          29  Bead:       0 positions{angstrom}  cell{angstrom}
       O -3.15243e+00  1.06770e+00  3.44651e-01
       H -2.81400e+00  1.64707e-01  3.64702e-01
       H -2.70666e+00  1.58230e+00  9.99790e-01
       H -3.82552e+00  1.37551e+00 -1.49619e-01
4
# CELL(abcABC): 1000.00000  1000.00000  1000.00000    90.00000    90.00000    90.00000  Step:          30  Bead:       0 positions{angstrom}  cell{angstrom}
       O -3.15369e+00  1.06719e+00  3.46030e-01
       H -2.81091e+00  1.58793e-01  3.55356e-01
       H -2.69230e+00  1.59306e+00  9.88232e-01
       H -3.82298e+00  1.37880e+00 -1.50603e-01
4
# CELL(abcABC): 1000.00000  1000.00000  1000.00000    90.00000    90.00000    90.00000  Step:          31  Bead:       0 positions{angstrom}  cell{angstrom}
       O -3.15495e+00  1.06633e+00  3.47549e-01
       H -2.80710e+00  1.56672e-01  3.46378e-01
       H -2.67728e+00  1.60410e+00  9.75776e-01
       H -3.82181e+00  1.38347e+00 -1.53284e-01
4
# CELL(abcABC): 1000.00000  1000.00000  1000.00000    90.00000    90.00000    90.00000  Step:          32  Bead:       0 positions{angstrom}  cell{angstrom}
       O -3.15603e+00  1.06535e+00  3.48977e-01
       H -2.80514e+00  1.56592e-01  3.38363e-01
       H -2.66209e+00  1.61508e+00  9.63860e-01
       H -3.82188e+00  1.38810e+00 -1.56030e-01
4
# CELL(abcABC): 1000.00000  1000.00000  1000.00000    90.00000    90.00000    90.00000  Step:          33  Bead:       0 positions{angstrom}  cell{angstrom}
       O -3.15690e+00  1.06434e+00  3.50396e-01
       H -2.80470e+00  1.59645e-01  3.32072e-01
       H -2.64737e+00  1.62315e+00  9.51328e-01
       H -3.82318e+00  1.39304e+00 -1.59729e-01
4
# CELL(abcABC): 1000.00000  1000.00000  1000.00000    90.00000    90.00000    90.00000  Step:          34  Bead:       0 positions{angstrom}  cell{angstrom}
       O -3.15744e+00  1.06327e+00  3.52014e-01
       H -2.80465e+00  1.65828e-01  3.26187e-01
       H -2.63569e+00  1.62838e+00  9.37776e-01
       H -3.82631e+00  1.39851e+00 -1.65978e-01
4
# CELL(abcABC): 1000.00000  1000.00000  1000.00000    90.00000    90.00000    90.00000  Step:          35  Bead:       0 positions{angstrom}  cell{angstrom}
       O -3.15784e+00  1.06217e+00  3.53723e-01
       H -2.80345e+00  1.74367e-01  3.20141e-01
       H -2.62657e+00  1.63205e+00  9.23596e-01
       H -3.83032e+00  1.40387e+00 -1.72871e-01
4
# CELL(abcABC): 1000.00000  1000.00000  1000.00000    90.00000    90.00000    90.00000  Step:          36  Bead:       0 positions{angstrom}  cell{angstrom}
       O -3.15813e+00  1.06105e+00  3.55514e-01
       H -2.80217e+00  1.84253e-01  3.14131e-01
       H -2.61862e+00  1.63459e+00  9.07490e-01
       H -3.83492e+00  1.40926e+00 -1.79193e-01
4
# CELL(abcABC): 1000.00000  1000.00000  1000.00000    90.00000    90.00000    90.00000  Step:          37  Bead:       0 positions{angstrom}  cell{angstrom}
       O -3.15840e+00  1.06013e+00  3.57222e-01
       H -2.79995e+00  1.95006e-01  3.10395e-01
       H -2.61123e+00  1.63433e+00  8.90164e-01
       H -3.84021e+00  1.41336e+00 -1.85242e-01
4
# CELL(abcABC): 1000.00000  1000.00000  1000.00000    90.00000    90.00000    90.00000  Step:          38  Bead:       0 positions{angstrom}  cell{angstrom}
       O -3.15851e+00  1.05942e+00  3.59075e-01
       H -2.79790e+00  2.04208e-01  3.05916e-01
       H -2.60435e+00  1.63123e+00  8.72340e-01
       H -3.84739e+00  1.41848e+00 -1.92351e-01
4
# CELL(abcABC): 1000.00000  1000.00000  1000.00000    90.00000    90.00000    90.00000  Step:          39  Bead:       0 positions{angstrom}  cell{angstrom}
       O -3.15887e+00  1.05909e+00  3.60745e-01
       H -2.79385e+00  2.10275e-01  3.02319e-01
       H -2.59692e+00  1.62591e+00  8.55904e-01
       H -3.85322e+00  1.42289e+00 -1.98824e-01
4
# CELL(abcABC): 1000.00000  1000.00000  1000.00000    90.00000    90.00000    90.00000  Step:          40  Bead:       0 positions{angstrom}  cell{angstrom}
       O -3.15941e+00  1.05898e+00  3.62090e-01
       H -2.78833e+00  2.13316e-01  3.00000e-01
       H -2.58838e+00  1.62044e+00  8.42313e-01
       H -3.85865e+00  1.42713e+00 -2.04253e-01
4
# CELL(abcABC): 1000.00000  1000.00000  1000.00000    90.00000    90.00000    90.00000  Step:          41  Bead:       0 positions{angstrom}  cell{angstrom}
       O -3.16013e+00  1.05906e+00  3.63191e-01
       H -2.78177e+00  2.13832e-01  2.97541e-01
       H -2.57786e+00  1.61569e+00  8.30791e-01
       H -3.86433e+00  1.43008e+00 -2.07756e-01
4
# CELL(abcABC): 1000.00000  1000.00000  1000.00000    90.00000    90.00000    90.00000  Step:          42  Bead:       0 positions{angstrom}  cell{angstrom}
       O -3.16113e+00  1.05946e+00  3.64126e-01
       H -2.77271e+00  2.09594e-01  2.95029e-01
       H -2.56554e+00  1.61167e+00  8.21656e-01
       H -3.86982e+00  1.43208e+00 -2.10952e-01
4
# CELL(abcABC): 1000.00000  1000.00000  1000.00000    90.00000    90.00000    90.00000  Step:          43  Bead:       0 positions{angstrom}  cell{angstrom}
       O -3.16224e+00  1.05990e+00  3.64848e-01
       H -2.76353e+00  2.04427e-01  2.92482e-01
       H -2.55167e+00  1.60977e+00  8.14779e-01
       H -3.87526e+00  1.43216e+00 -2.12980e-01
4
# CELL(abcABC): 1000.00000  1000.00000  1000.00000    90.00000    90.00000    90.00000  Step:          44  Bead:       0 positions{angstrom}  cell{angstrom}
       O -3.16336e+00  1.06042e+00  3.65354e-01
       H -2.75447e+00  1.98060e-01  2.89697e-01
       H -2.53686e+00  1.60799e+00  8.09154e-01
       H -3.88133e+00  1.43197e+00 -2.12608e-01
4
# CELL(abcABC): 1000.00000  1000.00000  1000.00000    90.00000    90.00000    90.00000  Step:          45  Bead:       0 positions{angstrom}  cell{angstrom}
       O -3.16433e+00  1.06097e+00  3.65725e-01
       H -2.74703e+00  1.92568e-01  2.86703e-01
       H -2.52121e+00  1.60572e+00  8.04033e-01
       H -3.88907e+00  1.43105e+00 -2.10391e-01
4
# CELL(abcABC): 1000.00000  1000.00000  1000.00000    90.00000    90.00000    90.00000  Step:          46  Bead:       0 positions{angstrom}  cell{angstrom}
       O -3.16519e+00  1.06150e+00  3.65960e-01
       H -2.74136e+00  1.89445e-01  2.83781e-01
       H -2.50629e+00  1.60231e+00  7.99293e-01
       H -3.89604e+00  1.42919e+00 -2.06445e-01
4
# CELL(abcABC): 1000.00000  1000.00000  1000.00000    90.00000    90.00000    90.00000  Step:          47  Bead:       0 positions{angstrom}  cell{angstrom}
       O -3.16580e+00  1.06185e+00  3.66172e-01
       H -2.73774e+00  1.88422e-01  2.81629e-01
       H -2.49253e+00  1.59852e+00  7.94141e-01
       H -3.90373e+00  1.42845e+00 -2.02511e-01
4
# CELL(abcABC): 1000.00000  1000.00000  1000.00000    90.00000    90.00000    90.00000  Step:          48  Bead:       0 positions{angstrom}  cell{angstrom}
       O -3.16611e+00  1.06221e+00  3.66247e-01
       H -2.73597e+00  1.88976e-01  2.80279e-01
       H -2.48069e+00  1.59450e+00  7.88381e-01
       H -3.91239e+00  1.42618e+00 -1.96598e-01
4
# CELL(abcABC): 1000.00000  1000.00000  1000.00000    90.00000    90.00000    90.00000  Step:          49  Bead:       0 positions{angstrom}  cell{angstrom}
       O -3.16615e+00  1.06249e+00  3.66096e-01
       H -2.73657e+00  1.91635e-01  2.79970e-01
       H -2.46999e+00  1.58928e+00  7.82654e-01
       H -3.92187e+00  1.42419e+00 -1.88159e-01
4
# CELL(abcABC): 1000.00000  1000.00000  1000.00000    90.00000    90.00000    90.00000  Step:          50  Bead:       0 positions{angstrom}  cell{angstrom}
       O -3.16568e+00  1.06279e+00  3.65943e-01
       H -2.73993e+00  1.96621e-01  2.79746e-01
       H -2.46365e+00  1.58245e+00  7.76787e-01
       H -3.93223e+00  1.42130e+00 -1.79639e-01
4
# CELL(abcABC): 1000.00000  1000.00000  1000.00000    90.00000    90.00000    90.00000  Step:          51  Bead:       0 positions{angstrom}  cell{angstrom}
       O -3.16492e+00  1.06305e+00  3.65705e-01
       H -2.74587e+00  2.02685e-01  2.79335e-01
       H -2.46020e+00  1.57535e+00  7.70631e-01
       H -3.94194e+00  1.41828e+00 -1.69292e-01
4
# CELL(abcABC): 1000.00000  1000.00000  1000.00000    90.00000    90.00000    90.00000  Step:          52  Bead:       0 positions{angstrom}  cell{angstrom}
       O -3.16386e+00  1.06340e+00  3.65476e-01
       H -2.75406e+00  2.09048e-01  2.79045e-01
       H -2.45926e+00  1.56756e+00  7.63398e-01
       H -3.95142e+00  1.41415e+00 -1.58136e-01
4
# CELL(abcABC): 1000.00000  1000.00000  1000.00000    90.00000    90.00000    90.00000  Step:          53  Bead:       0 positions{angstrom}  cell{angstrom}
       O -3.16264e+00  1.06375e+00  3.65099e-01
       H -2.76306e+00  2.15307e-01  2.77817e-01
       H -2.46019e+00  1.56173e+00  7.57237e-01
       H -3.96088e+00  1.40809e+00 -1.44759e-01
4
# CELL(abcABC): 1000.00000  1000.00000  1000.00000    90.00000    90.00000    90.00000  Step:          54  Bead:       0 positions{angstrom}  cell{angstrom}
       O -3.16130e+00  1.06427e+00  3.64323e-01
       H -2.77294e+00  2.18850e-01  2.77540e-01
       H -2.46234e+00  1.55779e+00  7.52709e-01
       H -3.97010e+00  1.40034e+00 -1.27644e-01
4
# CELL(abcABC): 1000.00000  1000.00000  1000.00000    90.00000    90.00000    90.00000  Step:          55  Bead:       0 positions{angstrom}  cell{angstrom}
       O -3.16000e+00  1.06490e+00  3.63356e-01
       H -2.78367e+00  2.19767e-01  2.77851e-01
       H -2.46444e+00  1.55566e+00  7.50092e-01
       H -3.97794e+00  1.39154e+00 -1.09991e-01
4
# CELL(abcABC): 1000.00000  1000.00000  1000.00000    90.00000    90.00000    90.00000  Step:          56  Bead:       0 positions{angstrom}  cell{angstrom}
       O -3.15883e+00  1.06561e+00  3.62219e-01
       H -2.79204e+00  2.17543e-01  2.78562e-01
       H -2.46617e+00  1.55531e+00  7.47873e-01
       H -3.98637e+00  1.38281e+00 -9.04349e-02
4
# CELL(abcABC): 1000.00000  1000.00000  1000.00000    90.00000    90.00000    90.00000  Step:          57  Bead:       0 positions{angstrom}  cell{angstrom}
       O -3.15777e+00  1.06638e+00  3.60861e-01
       H -2.79839e+00  2.12448e-01  2.79635e-01
       H -2.46796e+00  1.55672e+00  7.48285e-01
       H -3.99503e+00  1.37424e+00 -7.03594e-02
4
# CELL(abcABC): 1000.00000  1000.00000  1000.00000    90.00000    90.00000    90.00000  Step:          58  Bead:       0 positions{angstrom}  cell{angstrom}
       O -3.15693e+00  1.06726e+00  3.59340e-01
       H -2.80311e+00  2.03642e-01  2.80476e-01
       H -2.46812e+00  1.56031e+00  7.51013e-01
       H -4.00349e+00  1.36548e+00 -4.97817e-02
4
# CELL(abcABC): 1000.00000  1000.00000  1000.00000    90.00000    90.00000    90.00000  Step:          59  Bead:       0 positions{angstrom}  cell{angstrom}
       O -3.15628e+00  1.06811e+00  3.57559e-01
       H -2.80652e+00  1.93105e-01  2.81474e-01
       H -2.46682e+00  1.56623e+00  7.56832e-01
       H -4.01176e+00  1.35668e+00 -2.83300e-02
4
# CELL(abcABC): 1000.00000  1000.00000  1000.00000    90.00000    90.00000    90.00000  Step:          60  Bead:       0 positions{angstrom}  cell{angstrom}
       O -3.15575e+00  1.06896e+00  3.55718e-01
       H -2.81083e+00  1.81730e-01  2.82745e-01
       H -2.46410e+00  1.57269e+00  7.62125e-01
       H -4.01854e+00  1.34799e+00 -5.67872e-03
4
# CELL(abcABC): 1000.00000  1000.00000  1000.00000    90.00000    90.00000    90.00000  Step:          61  Bead:       0 positions{angstrom}  cell{angstrom}
       O -3.15536e+00  1.06978e+00  3.53844e-01
       H -2.81439e+00  1.70734e-01  2.84052e-01
       H -2.46012e+00  1.57928e+00  7.66612e-01
       H -4.02524e+00  1.33937e+00  1.82777e-02
4
# CELL(abcABC): 1000.00000  1000.00000  1000.00000    90.00000    90.00000    90.00000  Step:          62  Bead:       0 positions{angstrom}  cell{angstrom}
       O -3.15486e+00  1.07058e+00  3.52088e-01
       H -2.81913e+00  1.61098e-01  2.85262e-01
       H -2.45807e+00  1.58494e+00  7.70454e-01
       H -4.03046e+00  1.33072e+00  4.11032e-02
4
# CELL(abcABC): 1000.00000  1000.00000  1000.00000    90.00000    90.00000    90.00000  Step:          63  Bead:       0 positions{angstrom}  cell{angstrom}
       O -3.15423e+00  1.07113e+00  3.50202e-01
       H -2.82414e+00  1.55677e-01  2.87324e-01
       H -2.45762e+00  1.58878e+00  7.73511e-01
       H -4.03596e+00  1.32362e+00  6.59191e-02
4
# CELL(abcABC): 1000.00000  1000.00000  1000.00000    90.00000    90.00000    90.00000  Step:          64  Bead:       0 positions{angstrom}  cell{angstrom}
       O -3.15352e+00  1.07151e+00  3.48331e-01
       H -2.82852e+00  1.54328e-01  2.90717e-01
       H -2.45842e+00  1.59094e+00  7.75656e-01
       H -4.04199e+00  1.31671e+00  9.00862e-02
4
# CELL(abcABC): 1000.00000  1000.00000  1000.00000    90.00000    90.00000    90.00000  Step:          65  Bead:       0 positions{angstrom}  cell{angstrom}
       O -3.15271e+00  1.07168e+00  3.46563e-01
       H -2.83422e+00  1.57487e-01  2.93264e-01
       H -2.46025e+00  1.59271e+00  7.76506e-01
       H -4.04736e+00  1.30911e+00  1.14755e-01
4
# CELL(abcABC): 1000.00000  1000.00000  1000.00000    90.00000    90.00000    90.00000  Step:          66  Bead:       0 positions{angstrom}  cell{angstrom}
       O -3.15182e+00  1.07162e+00  3.44804e-01
       H -2.84032e+00  1.66678e-01  2.96601e-01
       H -2.46357e+00  1.59138e+00  7.76430e-01
       H -4.05207e+00  1.30225e+00  1.39414e-01
4
# CELL(abcABC): 1000.00000  1000.00000  1000.00000    90.00000    90.00000    90.00000  Step:          67  Bead:       0 positions{angstrom}  cell{angstrom}
       O -3.15080e+00  1.07156e+00  3.43155e-01
       H -2.84603e+00  1.77270e-01  2.99030e-01
       H -2.46771e+00  1.58874e+00  7.75711e-01
       H -4.05828e+00  1.29514e+00  1.63869e-01
4
# CELL(abcABC): 1000.00000  1000.00000  1000.00000    90.00000    90.00000    90.00000  Step:          68  Bead:       0 positions{angstrom}  cell{angstrom}
       O -3.14983e+00  1.07148e+00  3.41775e-01
       H -2.85046e+00  1.88258e-01  3.00850e-01
       H -2.47236e+00  1.58520e+00  7.72413e-01
       H -4.06467e+00  1.28906e+00  1.87261e-01
4
# CELL(abcABC): 1000.00000  1000.00000  1000.00000    90.00000    90.00000    90.00000  Step:          69  Bead:       0 positions{angstrom}  cell{angstrom}
       O -3.14888e+00  1.07159e+00  3.40336e-01
       H -2.85402e+00  1.96549e-01  3.03776e-01
       H -2.47785e+00  1.58137e+00  7.69335e-01
       H -4.07072e+00  1.28274e+00  2.10253e-01
4
# CELL(abcABC): 1000.00000  1000.00000  1000.00000    90.00000    90.00000    90.00000  Step:          70  Bead:       0 positions{angstrom}  cell{angstrom}
       O -3.14825e+00  1.07172e+00  3.39014e-01
       H -2.85552e+00  2.02713e-01  3.05086e-01
       H -2.48253e+00  1.57861e+00  7.65669e-01
       H -4.07459e+00  1.27741e+00  2.33586e-01
4
# CELL(abcABC): 1000.00000  1000.00000  1000.00000    90.00000    90.00000    90.00000  Step:          71  Bead:       0 positions{angstrom}  cell{angstrom}
       O -3.14780e+00  1.07208e+00  3.37867e-01
       H -2.85570e+00  2.03905e-01  3.04176e-01
       H -2.48636e+00  1.57628e+00  7.61593e-01
       H -4.07771e+00  1.27274e+00  2.56783e-01
4
# CELL(abcABC): 1000.00000  1000.00000  1000.00000    90.00000    90.00000    90.00000  Step:          72  Bead:       0 positions{angstrom}  cell{angstrom}
       O -3.14767e+00  1.07249e+00  3.36765e-01
       H -2.85350e+00  2.01255e-01  3.02630e-01
       H -2.48804e+00  1.57564e+00  7.58636e-01
       H -4.08030e+00  1.26963e+00  2.78778e-01
4
# CELL(abcABC): 1000.00000  1000.00000  1000.00000    90.00000    90.00000    90.00000  Step:          73  Bead:       0 positions{angstrom}  cell{angstrom}
       O -3.14778e+00  1.07300e+00  3.35826e-01
       H -2.84959e+00  1.94885e-01  2.99984e-01
       H -2.48751e+00  1.57718e+00  7.56225e-01
       H -4.08290e+00  1.26628e+00  2.98746e-01
4
# CELL(abcABC): 1000.00000  1000.00000  1000.00000    90.00000    90.00000    90.00000  Step:          74  Bead:       0 positions{angstrom}  cell{angstrom}
       O -3.14819e+00  1.07345e+00  3.35147e-01
       H -2.84393e+00  1.86257e-01  2.95102e-01
       H -2.48485e+00  1.58058e+00  7.53103e-01
       H -4.08477e+00  1.26432e+00  3.17520e-01
4
# CELL(abcABC): 1000.00000  1000.00000  1000.00000    90.00000    90.00000    90.00000  Step:          75  Bead:       0 positions{angstrom}  cell{angstrom}
       O -3.14864e+00  1.07385e+00  3.34589e-01
       H -2.83788e+00  1.75891e-01  2.88785e-01
       H -2.48099e+00  1.58496e+00  7.50962e-01
       H -4.08758e+00  1.26399e+00  3.34835e-01
4
# CELL(abcABC): 1000.00000  1000.00000  1000.00000    90.00000    90.00000    90.00000  Step:          76  Bead:       0 positions{angstrom}  cell{angstrom}
       O -3.14929e+00  1.07395e+00  3.34045e-01
       H -2.83066e+00  1.66744e-01  2.82772e-01
       H -2.47602e+00  1.59056e+00  7.48804e-01
       H -4.08933e+00  1.26601e+00  3.51642e-01
4
# CELL(abcABC): 1000.00000  1000.00000  1000.00000    90.00000    90.00000    90.00000  Step:          77  Bead:       0 positions{angstrom}  cell{angstrom}
       O -3.14991e+00  1.07378e+00  3.33623e-01
       H -2.82370e+00  1.60921e-01  2.76109e-01
       H -2.47097e+00  1.59704e+00  7.46718e-01
       H -4.09148e+00  1.26800e+00  3.67089e-01
4
# CELL(abcABC): 1000.00000  1000.00000  1000.00000    90.00000    90.00000    90.00000  Step:          78  Bead:       0 positions{angstrom}  cell{angstrom}
       O -3.15045e+00  1.07338e+00  3.33549e-01
       H -2.81847e+00  1.57781e-01  2.67945e-01
       H -2.46526e+00  1.60412e+00  7.43394e-01
       H -4.09387e+00  1.27049e+00  3.79763e-01
4
# CELL(abcABC): 1000.00000  1000.00000  1000.00000    90.00000    90.00000    90.00000  Step:          79  Bead:       0 positions{angstrom}  cell{angstrom}
       O -3.15097e+00  1.07284e+00  3.33649e-01
       H -2.81468e+00  1.59057e-01  2.60575e-01
       H -2.45901e+00  1.60967e+00  7.38452e-01
       H -4.09569e+00  1.27222e+00  3.90484e-01
4
# CELL(abcABC): 1000.00000  1000.00000  1000.00000    90.00000    90.00000    90.00000  Step:          80  Bead:       0 positions{angstrom}  cell{angstrom}
       O -3.15146e+00  1.07212e+00  3.33867e-01
       H -2.81137e+00  1.64506e-01  2.52795e-01
       H -2.45358e+00  1.61374e+00  7.32821e-01
       H -4.09661e+00  1.27400e+00  4.00435e-01
4
# CELL(abcABC): 1000.00000  1000.00000  1000.00000    90.00000    90.00000    90.00000  Step:          81  Bead:       0 positions{angstrom}  cell{angstrom}
       O -3.15188e+00  1.07115e+00  3.34384e-01
       H -2.80673e+00  1.74254e-01  2.43981e-01
       H -2.45030e+00  1.61812e+00  7.25441e-01
       H -4.09785e+00  1.27541e+00  4.08413e-01
4
# CELL(abcABC): 1000.00000  1000.00000  1000.00000    90.00000    90.00000    90.00000  Step:          82  Bead:       0 positions{angstrom}  cell{angstrom}
       O -3.15217e+00  1.07025e+00  3.35049e-01
       H -2.80194e+00  1.85955e-01  2.35478e-01
       H -2.44846e+00  1.61958e+00  7.15981e-01
       H -4.10001e+00  1.27654e+00  4.15819e-01
4
# CELL(abcABC): 1000.00000  1000.00000  1000.00000    90.00000    90.00000    90.00000  Step:          83  Bead:       0 positions{angstrom}  cell{angstrom}
       O -3.15237e+00  1.06929e+00  3.35955e-01
       H -2.79731e+00  1.99460e-01  2.26856e-01
       H -2.44836e+00  1.61982e+00  7.04617e-01
       H -4.10149e+00  1.27790e+00  4.21435e-01
4
# CELL(abcABC): 1000.00000  1000.00000  1000.00000    90.00000    90.00000    90.00000  Step:          84  Bead:       0 positions{angstrom}  cell{angstrom}
       O -3.15249e+00  1.06843e+00  3.37123e-01
       H -2.79137e+00  2.12185e-01  2.16511e-01
       H -2.45074e+00  1.61897e+00  6.91463e-01
       H -4.10322e+00  1.27974e+00  4.26392e-01
4
# CELL(abcABC): 1000.00000  1000.00000  1000.00000    90.00000    90.00000    90.00000  Step:          85  Bead:       0 positions{angstrom}  cell{angstrom}