4
# CELL(abcABC): 1000.00000  1000.00000  1000.00000    90.00000    90.00000    90.00000  Step:           0  Bead:       0 positions{angstrom}  cell{angstrom}
       O -3.13826e+00  1.07373e+00  3.45931e-01
       H -3.74907e+00  5.34368e-01 -1.60395e-01
       H -2.35888e+00  5.74526e-01  4.13455e-01
       H -3.46326e+00  1.91809e+00  9.41507e-01
4
# CELL(abcABC): 1000.00000  1000.00000  1000.00000    90.00000    90.00000    90.00000  Step:           1  Bead:       0 positions{angstrom}  cell{angstrom}
       O -3.13675e+00  1.07408e+00  3.45417e-01
       H -3.75913e+00  5.27330e-01 -1.56596e-01
       H -2.35609e+00  5.72785e-01  4.14700e-01
       H -3.48004e+00  1.92124e+00  9.44630e-01
4
# CELL(abcABC): 1000.00000  1000.00000  1000.00000    90.00000    90.00000    90.00000  Step:           2  Bead:       0 positions{angstrom}  cell{angstrom}
       O -3.13569e+00  1.07452e+00  3.44930e-01
       H -3.76920e+00  5.21393e-01 -1.52573e-01
       H -2.34683e+00  5.69072e-01  4.16105e-01
       H -3.49596e+00  1.92396e+00  9.46916e-01
4
# CELL(abcABC): 1000.00000  1000.00000  1000.00000    90.00000    90.00000    90.00000  Step:           3  Bead:       0 positions{angstrom}  cell{angstrom}
       O -3.13494e+00  1.07503e+00  3.44393e-01
       H -3.77783e+00  5.15611e-01 -1.46543e-01
       H -2.33428e+00  5.65305e-01  4.18216e-01
       H -3.51173e+00  1.92537e+00  9.47302e-01
4
# CELL(abcABC): 1000.00000  1000.00000  1000.00000    90.00000    90.00000    90.00000  Step:           4  Bead:       0 positions{angstrom}  cell{angstrom}
       O -3.13451e+00  1.07557e+00  3.43962e-01
       H -3.78518e+00  5.10204e-01 -1.41039e-01
       H -2.31918e+00  5.62067e-01  4.19838e-01
       H -3.52644e+00  1.92543e+00  9.47026e-01
4
# CELL(abcABC): 1000.00000  1000.00000  1000.00000    90.00000    90.00000    90.00000  Step:           5  Bead:       0 positions{angstrom}  cell{angstrom}
       O -3.13418e+00  1.07592e+00  3.43600e-01
       H -3.79129e+00  5.06550e-01 -1.34993e-01
       H -2.30456e+00  5.60922e-01  4.22296e-01
       H -3.54008e+00  1.92482e+00  9.44265e-01
4
# CELL(abcABC): 1000.00000  1000.00000  1000.00000    90.00000    90.00000    90.00000  Step:           6  Bead:       0 positions{angstrom}  cell{angstrom}
       O -3.13389e+00  1.07620e+00  3.43311e-01
       H -3.79498e+00  5.04918e-01 -1.28971e-01
       H -2.29186e+00  5.59928e-01  4.23469e-01
       H -3.55366e+00  1.92298e+00  9.41656e-01
4
# CELL(abcABC): 1000.00000  1000.00000  1000.00000    90.00000    90.00000    90.00000  Step:           7  Bead:       0 positions{angstrom}  cell{angstrom}
       O -3.13374e+00  1.07621e+00  3.42875e-01
       H -3.79473e+00  5.04951e-01 -1.20774e-01
       H -2.28181e+00  5.60868e-01  4.25064e-01
       H -3.56646e+00  1.92174e+00  9.38793e-01
4
# CELL(abcABC): 1000.00000  1000.00000  1000.00000    90.00000    90.00000    90.00000  Step:           8  Bead:       0 positions{angstrom}  cell{angstrom}
       O -3.13369e+00  1.07607e+00  3.42553e-01
       H -3.79115e+00  5.06289e-01 -1.12608e-01
       H -2.27400e+00  5.63465e-01  4.25603e-01
       H -3.57853e+00  1.92003e+00  9.35196e-01
4
# CELL(abcABC): 1000.00000  1000.00000  1000.00000    90.00000    90.00000    90.00000  Step:           9  Bead:       0 positions{angstrom}  cell{angstrom}
       O -3.13367e+00  1.07587e+00  3.42185e-01
       H -3.78559e+00  5.07521e-01 -1.03111e-01
       H -2.26887e+00  5.68886e-01  4.26308e-01
       H -3.58964e+00  1.91655e+00  9.30829e-01
4
# CELL(abcABC): 1000.00000  1000.00000  1000.00000    90.00000    90.00000    90.00000  Step:          10  Bead:       0 positions{angstrom}  cell{angstrom}
       O -3.13357e+00  1.07550e+00  3.42049e-01
       H -3.77852e+00  5.08775e-01 -9.47079e-02
       H -2.26742e+00  5.77594e-01  4.25858e-01
       H -3.59969e+00  1.91256e+00  9.25034e-01
4
# CELL(abcABC): 1000.00000  1000.00000  1000.00000    90.00000    90.00000    90.00000  Step:          11  Bead:       0 positions{angstrom}  cell{angstrom}
       O -3.13337e+00  1.07508e+00  3.42195e-01
       H -3.77044e+00  5.10075e-01 -8.85234e-02
       H -2.27084e+00  5.88346e-01  4.24609e-01
       H -3.60749e+00  1.90712e+00  9.17789e-01
4
# CELL(abcABC): 1000.00000  1000.00000  1000.00000    90.00000    90.00000    90.00000  Step:          12  Bead:       0 positions{angstrom}  cell{angstrom}
       O -3.13322e+00  1.07474e+00  3.42580e-01
       H -3.76096e+00  5.09877e-01 -8.41405e-02
       H -2.27719e+00  5.99693e-01  4.22066e-01
       H -3.61299e+00  1.90134e+00  9.09830e-01
4
# CELL(abcABC): 1000.00000  1000.00000  1000.00000    90.00000    90.00000    90.00000  Step:          13  Bead:       0 positions{angstrom}  cell{angstrom}
       O -3.13309e+00  1.07451e+00  3.43127e-01
       H -3.75201e+00  5.08369e-01 -8.14668e-02
       H -2.28399e+00  6.12079e-01  4.19386e-01
       H -3.61725e+00  1.89411e+00  9.01151e-01
4
# CELL(abcABC): 1000.00000  1000.00000  1000.00000    90.00000    90.00000    90.00000  Step:          14  Bead:       0 positions{angstrom}  cell{angstrom}
       O -3.13302e+00  1.07442e+00  3.43816e-01
       H -3.74283e+00  5.04267e-01 -8.06333e-02
       H -2.29074e+00  6.25578e-01  4.16716e-01
       H -3.62077e+00  1.88626e+00  8.92048e-01
4
# CELL(abcABC): 1000.00000  1000.00000  1000.00000    90.00000    90.00000    90.00000  Step:          15  Bead:       0 positions{angstrom}  cell{angstrom}
       O -3.13295e+00  1.07440e+00  3.44450e-01
       H -3.73717e+00  4.97133e-01 -8.00302e-02
       H -2.29710e+00  6.39435e-01  4.14482e-01
       H -3.62116e+00  1.87974e+00  8.83617e-01
4
# CELL(abcABC): 1000.00000  1000.00000  1000.00000    90.00000    90.00000    90.00000  Step:          16  Bead:       0 positions{angstrom}  cell{angstrom}
       O -3.13309e+00  1.07453e+00  3.45205e-01
       H -3.73200e+00  4.87278e-01 -8.19701e-02
       H -2.30113e+00  6.53530e-01  4.12747e-01
       H -3.62022e+00  1.87355e+00  8.75308e-01
4
# CELL(abcABC): 1000.00000  1000.00000  1000.00000    90.00000    90.00000    90.00000  Step:          17  Bead:       0 positions{angstrom}  cell{angstrom}
       O -3.13337e+00  1.07484e+00  3.46029e-01
       H -3.72732e+00  4.76000e-01 -8.55158e-02
       H -2.30237e+00  6.66928e-01  4.10636e-01
       H -3.61912e+00  1.86649e+00  8.67889e-01
4
# CELL(abcABC): 1000.00000  1000.00000  1000.00000    90.00000    90.00000    90.00000  Step:          18  Bead:       0 positions{angstrom}  cell{angstrom}
       O -3.13394e+00  1.07522e+00  3.46874e-01
       H -3.72438e+00  4.64314e-01 -9.02247e-02
       H -2.29775e+00  6.78613e-01  4.09113e-01
       H -3.61768e+00  1.86048e+00  8.60710e-01
4
# CELL(abcABC): 1000.00000  1000.00000  1000.00000    90.00000    90.00000    90.00000  Step:          19  Bead:       0 positions{angstrom}  cell{angstrom}
       O -3.13494e+00  1.07573e+00  3.47679e-01
       H -3.72107e+00  4.52041e-01 -9.52554e-02
       H -2.28912e+00  6.88068e-01  4.07568e-01
       H -3.61375e+00  1.85516e+00  8.54500e-01
4
# CELL(abcABC): 1000.00000  1000.00000  1000.00000    90.00000    90.00000    90.00000  Step:          20  Bead:       0 positions{angstrom}  cell{angstrom}
       O -3.13625e+00  1.07629e+00  3.48484e-01
       H -3.71711e+00  4.40512e-01 -1.01946e-01
       H -2.27739e+00  6.96347e-01  4.06821e-01
       H -3.60858e+00  1.84955e+00  8.49167e-01
4
# CELL(abcABC): 1000.00000  1000.00000  1000.00000    90.00000    90.00000    90.00000  Step:          21  Bead:       0 positions{angstrom}  cell{angstrom}
       O -3.13790e+00  1.07675e+00  3.49274e-01
       H -3.71247e+00  4.29484e-01 -1.09626e-01
       H -2.26123e+00  7.04495e-01  4.07467e-01
       H -3.60317e+00  1.84512e+00  8.43667e-01
4
# CELL(abcABC): 1000.00000  1000.00000  1000.00000    90.00000    90.00000    90.00000  Step:          22  Bead:       0 positions{angstrom}  cell{angstrom}
       O -3.13979e+00  1.07693e+00  3.50051e-01
       H -3.70740e+00  4.19221e-01 -1.15750e-01
       H -2.24182e+00  7.12967e-01  4.06786e-01
       H -3.59772e+00  1.84405e+00  8.38136e-01
4
# CELL(abcABC): 1000.00000  1000.00000  1000.00000    90.00000    90.00000    90.00000  Step:          23  Bead:       0 positions{angstrom}  cell{angstrom}
       O -3.14176e+00  1.07680e+00  3.50896e-01
       H -3.70035e+00  4.11624e-01 -1.21479e-01
       H -2.22230e+00  7.22773e-01  4.06573e-01
       H -3.59297e+00  1.84389e+00  8.30669e-01
4
# CELL(abcABC): 1000.00000  1000.00000  1000.00000    90.00000    90.00000    90.00000  Step:          24  Bead:       0 positions{angstrom}  cell{angstrom}
       O -3.14369e+00  1.07620e+00  3.51621e-01
       H -3.69082e+00  4.05427e-01 -1.26154e-01
       H -2.20492e+00  7.35089e-01  4.06523e-01
       H -3.58923e+00  1.84727e+00  8.23879e-01
4
# CELL(abcABC): 1000.00000  1000.00000  1000.00000    90.00000    90.00000    90.00000  Step:          25  Bead:       0 positions{angstrom}  cell{angstrom}
       O -3.14541e+00  1.07529e+00  3.52130e-01
       H -3.67956e+00  4.00659e-01 -1.28854e-01
       H -2.19176e+00  7.48540e-01  4.06444e-01
       H -3.58643e+00  1.85310e+00  8.18576e-01
4
# CELL(abcABC): 1000.00000  1000.00000  1000.00000    90.00000    90.00000    90.00000  Step:          26  Bead:       0 positions{angstrom}  cell{angstrom}
       O -3.14685e+00  1.07406e+00  3.52500e-01
       H -3.66678e+00  3.97450e-01 -1.31205e-01
       H -2.18306e+00  7.63582e-01  4.05871e-01
       H -3.58501e+00  1.86068e+00  8.15631e-01
4
# CELL(abcABC): 1000.00000  1000.00000  1000.00000    90.00000    90.00000    90.00000  Step:          27  Bead:       0 positions{angstrom}  cell{angstrom}
       O -3.14808e+00  1.07247e+00  3.52806e-01
       H -3.65306e+00  3.97030e-01 -1.33415e-01
       H -2.17955e+00  7.79570e-01  4.04606e-01
       H -3.58278e+00  1.87032e+00  8.14251e-01
4
# CELL(abcABC): 1000.00000  1000.00000  1000.00000    90.00000    90.00000    90.00000  Step:          28  Bead:       0 positions{angstrom}  cell{angstrom}
       O -3.14891e+00  1.07061e+00  3.52998e-01
       H -3.63979e+00  3.96311e-01 -1.35390e-01
       H -2.18063e+00  7.97232e-01  4.03202e-01
       H -3.58180e+00  1.88292e+00  8.14580e-01
4
# CELL(abcABC): 1000.00000  1000.00000  1000.00000    90.00000    90.00000    90.00000  Step:          29  Bead:       0 positions{angstrom}  cell{angstrom}
       O -3.14943e+00  1.06852e+00  3.53198e-01
       H -3.62570e+00  3.96510e-01 -1.38839e-01
       H -2.18738e+00  8.16038e-01  4.01381e-01
       H -3.58080e+00  1.89712e+00  8.16680e-01
4
# CELL(abcABC): 1000.00000  1000.00000  1000.00000    90.00000    90.00000    90.00000  Step:          30  Bead:       0 positions{angstrom}  cell{angstrom}
       O -3.14968e+00  1.06623e+00  3.53400e-01
       H -3.61157e+00  3.97646e-01 -1.42060e-01
       H -2.19805e+00  8.35516e-01  3.99571e-01
       H -3.58034e+00  1.91293e+00  8.18501e-01
4
# CELL(abcABC): 1000.00000  1000.00000  1000.00000    90.00000    90.00000    90.00000  Step:          31  Bead:       0 positions{angstrom}  cell{angstrom}
       O -3.14986e+00  1.06383e+00  3.53750e-01
       H -3.59675e+00  3.98115e-01 -1.46159e-01
       H -2.21019e+00  8.56277e-01  3.96757e-01
       H -3.58013e+00  1.92970e+00  8.19860e-01
4
# CELL(abcABC): 1000.00000  1000.00000  1000.00000    90.00000    90.00000    90.00000  Step:          32  Bead:       0 positions{angstrom}  cell{angstrom}
       O -3.14993e+00  1.06166e+00  3.54056e-01
       H -3.58418e+00  3.95145e-01 -1.51223e-01
       H -2.22190e+00  8.77905e-01  3.94833e-01
       H -3.57994e+00  1.94554e+00  8.21981e-01
4
# CELL(abcABC): 1000.00000  1000.00000  1000.00000    90.00000    90.00000    90.00000  Step:          33  Bead:       0 positions{angstrom}  cell{angstrom}
       O -3.15002e+00  1.05983e+00  3.54415e-01
       H -3.57367e+00  3.89551e-01 -1.56828e-01
       H -2.23119e+00  8.97609e-01  3.93140e-01
       H -3.57967e+00  1.96039e+00  8.23592e-01
4
# CELL(abcABC): 1000.00000  1000.00000  1000.00000    90.00000    90.00000    90.00000  Step:          34  Bead:       0 positions{angstrom}  cell{angstrom}
       O -3.15015e+00  1.05833e+00  3.55039e-01
       H -3.56415e+00  3.81833e-01 -1.64304e-01
       H -2.23832e+00  9.15451e-01  3.91566e-01
       H -3.57997e+00  1.97421e+00  8.22738e-01
4
# CELL(abcABC): 1000.00000  1000.00000  1000.00000    90.00000    90.00000    90.00000  Step:          35  Bead:       0 positions{angstrom}  cell{angstrom}
       O -3.15061e+00  1.05708e+00  3.55825e-01
       H -3.55406e+00  3.72472e-01 -1.73922e-01
       H -2.24108e+00  9.32569e-01  3.90484e-01
       H -3.58000e+00  1.98616e+00  8.20957e-01
4
# CELL(abcABC): 1000.00000  1000.00000  1000.00000    90.00000    90.00000    90.00000  Step:          36  Bead:       0 positions{angstrom}  cell{angstrom}
       O -3.15148e+00  1.05604e+00  3.56769e-01
       H -3.54443e+00  3.62202e-01 -1.84980e-01
       H -2.23730e+00  9.49243e-01  3.88377e-01
       H -3.57968e+00  1.99633e+00  8.19130e-01
4
# CELL(abcABC): 1000.00000  1000.00000  1000.00000    90.00000    90.00000    90.00000  Step:          37  Bead:       0 positions{angstrom}  cell{angstrom}
       O -3.15278e+00  1.05529e+00  3.57710e-01
       H -3.53441e+00  3.52640e-01 -1.94576e-01
       H -2.22698e+00  9.63670e-01  3.85512e-01
       H -3.57934e+00  2.00339e+00  8.16658e-01
4
# CELL(abcABC): 1000.00000  1000.00000  1000.00000    90.00000    90.00000    90.00000  Step:          38  Bead:       0 positions{angstrom}  cell{angstrom}
       O -3.15422e+00  1.05473e+00  3.58892e-01
       H -3.52529e+00  3.43425e-01 -2.05119e-01
       H -2.21212e+00  9.75531e-01  3.81996e-01
       H -3.58043e+00  2.00968e+00  8.11961e-01
4
# CELL(abcABC): 1000.00000  1000.00000  1000.00000    90.00000    90.00000    90.00000  Step:          39  Bead:       0 positions{angstrom}  cell{angstrom}
       O -3.15600e+00  1.05442e+00  3.60008e-01
       H -3.51502e+00  3.34920e-01 -2.14313e-01
       H -2.19457e+00  9.84946e-01  3.78946e-01
       H -3.57999e+00  2.01357e+00  8.06482e-01
4
# CELL(abcABC): 1000.00000  1000.00000  1000.00000    90.00000    90.00000    90.00000  Step:          40  Bead:       0 positions{angstrom}  cell{angstrom}
       O -3.15785e+00  1.05417e+00  3.60938e-01
       H -3.50415e+00  3.28449e-01 -2.21207e-01
       H -2.17693e+00  9.93389e-01  3.77109e-01
       H -3.57922e+00  2.01570e+00  8.00446e-01
4
# CELL(abcABC): 1000.00000  1000.00000  1000.00000    90.00000    90.00000    90.00000  Step:          41  Bead:       0 positions{angstrom}  cell{angstrom}
       O -3.15957e+00  1.05393e+00  3.61781e-01
       H -3.49297e+00  3.24956e-01 -2.26880e-01
       H -2.16105e+00  1.00122e+00  3.75242e-01
       H -3.57898e+00  2.01506e+00  7.94607e-01
4
# CELL(abcABC): 1000.00000  1000.00000  1000.00000    90.00000    90.00000    90.00000  Step:          42  Bead:       0 positions{angstrom}  cell{angstrom}
       O -3.16115e+00  1.05387e+00  3.62621e-01
       H -3.47983e+00  3.21985e-01 -2.31106e-01
       H -2.14906e+00  1.00820e+00  3.73485e-01
       H -3.57901e+00  2.01209e+00  7.87266e-01
4
# CELL(abcABC): 1000.00000  1000.00000  1000.00000    90.00000    90.00000    90.00000  Step:          43  Bead:       0 positions{angstrom}  cell{angstrom}
       O -3.16237e+00  1.05376e+00  3.63405e-01
       H -3.46659e+00  3.22219e-01 -2.33879e-01
       H -2.14231e+00  1.01569e+00  3.71824e-01
       H -3.57964e+00  2.00599e+00  7.79251e-01
4
# CELL(abcABC): 1000.00000  1000.00000  1000.00000    90.00000    90.00000    90.00000  Step:          44  Bead:       0 positions{angstrom}  cell{angstrom}
       O -3.16315e+00  1.05373e+00  3.64119e-01
       H -3.45303e+00  3.23962e-01 -2.35615e-01
       H -2.14150e+00  1.02200e+00  3.69671e-01
       H -3.58164e+00  1.99855e+00  7.71813e-01
4
# CELL(abcABC): 1000.00000  1000.00000  1000.00000    90.00000    90.00000    90.00000  Step:          45  Bead:       0 positions{angstrom}  cell{angstrom}
       O -3.16338e+00  1.05375e+00  3.64825e-01
       H -3.44022e+00  3.27703e-01 -2.36598e-01
       H -2.14612e+00  1.02694e+00  3.66811e-01
       H -3.58616e+00  1.98949e+00  7.64448e-01
4
# CELL(abcABC): 1000.00000  1000.00000  1000.00000    90.00000    90.00000    90.00000  Step:          46  Bead:       0 positions{angstrom}  cell{angstrom}
       O -3.16320e+00  1.05384e+00  3.65505e-01
       H -3.42798e+00  3.33499e-01 -2.36938e-01
       H -2.15651e+00  1.03037e+00  3.63699e-01
       H -3.59084e+00  1.97880e+00  7.57107e-01
4
# CELL(abcABC): 1000.00000  1000.00000  1000.00000    90.00000    90.00000    90.00000  Step:          47  Bead:       0 positions{angstrom}  cell{angstrom}
       O -3.16258e+00  1.05388e+00  3.66264e-01
       H -3.41654e+00  3.39901e-01 -2.36407e-01
       H -2.17138e+00  1.03342e+00  3.60057e-01
       H -3.59722e+00  1.96873e+00  7.48160e-01
4
# CELL(abcABC): 1000.00000  1000.00000  1000.00000    90.00000    90.00000    90.00000  Step:          48  Bead:       0 positions{angstrom}  cell{angstrom}
       O -3.16160e+00  1.05408e+00  3.66986e-01
       H -3.40581e+00  3.45486e-01 -2.35478e-01
       H -2.18928e+00  1.03658e+00  3.56127e-01
       H -3.60561e+00  1.95686e+00  7.39701e-01
4
# CELL(abcABC): 1000.00000  1000.00000  1000.00000    90.00000    90.00000    90.00000  Step:          49  Bead:       0 positions{angstrom}  cell{angstrom}
       O -3.16043e+00  1.05436e+00  3.67580e-01
       H -3.39655e+00  3.50180e-01 -2.34350e-01
       H -2.20679e+00  1.03909e+00  3.52876e-01
       H -3.61592e+00  1.94521e+00  7.32402e-01
4
# CELL(abcABC): 1000.00000  1000.00000  1000.00000    90.00000    90.00000    90.00000  Step:          50  Bead:       0 positions{angstrom}  cell{angstrom}
       O -3.15899e+00  1.05480e+00  3.68269e-01
       H -3.38948e+00  3.54009e-01 -2.34317e-01
       H -2.22439e+00  1.04066e+00  3.50355e-01
       H -3.62826e+00  1.93284e+00  7.23951e-01
4
# CELL(abcABC): 1000.00000  1000.00000  1000.00000    90.00000    90.00000    90.00000  Step:          51  Bead:       0 positions{angstrom}  cell{angstrom}
       O -3.15762e+00  1.05532e+00  3.68972e-01
       H -3.38489e+00  3.56092e-01 -2.35784e-01
       H -2.23790e+00  1.04247e+00  3.48395e-01
       H -3.64117e+00  1.92072e+00  7.16224e-01
4
# CELL(abcABC): 1000.00000  1000.00000  1000.00000    90.00000    90.00000    90.00000  Step:          52  Bead:       0 positions{angstrom}  cell{angstrom}
       O -3.15642e+00  1.05600e+00  3.69776e-01
       H -3.38293e+00  3.56574e-01 -2.38304e-01
       H -2.24489e+00  1.04380e+00  3.46021e-01
       H -3.65514e+00  1.90806e+00  7.08342e-01
4
# CELL(abcABC): 1000.00000  1000.00000  1000.00000    90.00000    90.00000    90.00000  Step:          53  Bead:       0 positions{angstrom}  cell{angstrom}
       O -3.15553e+00  1.05669e+00  3.70516e-01
       H -3.38261e+00  3.56421e-01 -2.42555e-01
       H -2.24400e+00  1.04681e+00  3.45016e-01
       H -3.67046e+00  1.89426e+00  7.01865e-01
4
# CELL(abcABC): 1000.00000  1000.00000  1000.00000    90.00000    90.00000    90.00000  Step:          54  Bead:       0 positions{angstrom}  cell{angstrom}
       O -3.15491e+00  1.05746e+00  3.70919e-01
       H -3.38439e+00  3.54635e-01 -2.46122e-01
       H -2.23544e+00  1.05093e+00  3.45569e-01
       H -3.68702e+00  1.87975e+00  6.98474e-01
4
# CELL(abcABC): 1000.00000  1000.00000  1000.00000    90.00000    90.00000    90.00000  Step:          55  Bead:       0 positions{angstrom}  cell{angstrom}
       O -3.15457e+00  1.05819e+00  3.71167e-01
       H -3.38848e+00  3.52739e-01 -2.48796e-01
       H -2.22016e+00  1.05564e+00  3.47630e-01
       H -3.70373e+00  1.86529e+00  6.95160e-01
4
# CELL(abcABC): 1000.00000  1000.00000  1000.00000    90.00000    90.00000    90.00000  Step:          56  Bead:       0 positions{angstrom}  cell{angstrom}
       O -3.15438e+00  1.05880e+00  3.71250e-01
       H -3.39173e+00  3.51316e-01 -2.50280e-01
       H -2.20102e+00  1.06058e+00  3.49461e-01
       H -3.72260e+00  1.85212e+00  6.93486e-01
4
# CELL(abcABC): 1000.00000  1000.00000  1000.00000    90.00000    90.00000    90.00000  Step:          57  Bead:       0 positions{angstrom}  cell{angstrom}
       O -3.15413e+00  1.05925e+00  3.71099e-01
       H -3.39433e+00  3.50978e-01 -2.50335e-01
       H -2.18174e+00  1.06550e+00  3.53158e-01
       H -3.74325e+00  1.84031e+00  6.92242e-01
4
# CELL(abcABC): 1000.00000  1000.00000  1000.00000    90.00000    90.00000    90.00000  Step:          58  Bead:       0 positions{angstrom}  cell{angstrom}
       O -3.15378e+00  1.05964e+00  3.70762e-01
       H -3.39641e+00  3.50483e-01 -2.49514e-01
       H -2.16336e+00  1.07076e+00  3.58384e-01
       H -3.76512e+00  1.82938e+00  6.91548e-01
4
# CELL(abcABC): 1000.00000  1000.00000  1000.00000    90.00000    90.00000    90.00000  Step:          59  Bead:       0 positions{angstrom}  cell{angstrom}
       O -3.15322e+00  1.05988e+00  3.70129e-01
       H -3.39779e+00  3.50705e-01 -2.47512e-01
       H -2.14795e+00  1.07674e+00  3.66090e-01
       H -3.78801e+00  1.81932e+00  6.91887e-01
4
# CELL(abcABC): 1000.00000  1000.00000  1000.00000    90.00000    90.00000    90.00000  Step:          60  Bead:       0 positions{angstrom}  cell{angstrom}
       O -3.15239e+00  1.06011e+00  3.69385e-01
       H -3.40015e+00  3.51023e-01 -2.44448e-01
       H -2.13646e+00  1.08218e+00  3.73044e-01
       H -3.81037e+00  1.80999e+00  6.93678e-01
4
# CELL(abcABC): 1000.00000  1000.00000  1000.00000    90.00000    90.00000    90.00000  Step:          61  Bead:       0 positions{angstrom}  cell{angstrom}
       O -3.15132e+00  1.06035e+00  3.68539e-01
       H -3.40135e+00  3.51100e-01 -2.40817e-01
       H -2.12935e+00  1.08727e+00  3.79405e-01
       H -3.83326e+00  1.80105e+00  6.97111e-01
4
# CELL(abcABC): 1000.00000  1000.00000  1000.00000    90.00000    90.00000    90.00000  Step:          62  Bead:       0 positions{angstrom}  cell{angstrom}
       O -3.14985e+00  1.06068e+00  3.67726e-01
       H -3.40290e+00  3.50414e-01 -2.37020e-01
       H -2.12954e+00  1.09157e+00  3.85807e-01
       H -3.85487e+00  1.79210e+00  6.99812e-01
4
# CELL(abcABC): 1000.00000  1000.00000  1000.00000    90.00000    90.00000    90.00000  Step:          63  Bead:       0 positions{angstrom}  cell{angstrom}
       O -3.14803e+00  1.06096e+00  3.66685e-01
       H -3.40353e+00  3.50659e-01 -2.32279e-01
       H -2.13605e+00  1.09466e+00  3.92445e-01
       H -3.87657e+00  1.78441e+00  7.04965e-01
4
# CELL(abcABC): 1000.00000  1000.00000  1000.00000    90.00000    90.00000    90.00000  Step:          64  Bead:       0 positions{angstrom}  cell{angstrom}
       O -3.14603e+00  1.06130e+00  3.65558e-01
       H -3.40228e+00  3.50940e-01 -2.26341e-01
       H -2.14749e+00  1.09696e+00  3.99410e-01
       H -3.89816e+00  1.77634e+00  7.09958e-01
4
# CELL(abcABC): 1000.00000  1000.00000  1000.00000    90.00000    90.00000    90.00000  Step:          65  Bead:       0 positions{angstrom}  cell{angstrom}
       O -3.14391e+00  1.06170e+00  3.64440e-01
       H -3.40116e+00  3.51293e-01 -2.21642e-01
       H -2.16224e+00  1.09993e+00  4.06457e-01
       H -3.91810e+00  1.76676e+00  7.15959e-01
4
# CELL(abcABC): 1000.00000  1000.00000  1000.00000    90.00000    90.00000    90.00000  Step:          66  Bead:       0 positions{angstrom}  cell{angstrom}
       O -3.14183e+00  1.06212e+00  3.63240e-01
       H -3.39952e+00  3.53485e-01 -2.16710e-01
       H -2.17901e+00  1.10092e+00  4.14048e-01
       H -3.93602e+00  1.75692e+00  7.22474e-01
4
# CELL(abcABC): 1000.00000  1000.00000  1000.00000    90.00000    90.00000    90.00000  Step:          67  Bead:       0 positions{angstrom}  cell{angstrom}
       O -3.13985e+00  1.06276e+00  3.62076e-01
       H -3.39710e+00  3.53762e-01 -2.13484e-01
       H -2.19515e+00  1.10161e+00  4.22450e-01
       H -3.95379e+00  1.74569e+00  7.29332e-01
4
# CELL(abcABC): 1000.00000  1000.00000  1000.00000    90.00000    90.00000    90.00000  Step:          68  Bead:       0 positions{angstrom}  cell{angstrom}
       O -3.13822e+00  1.06353e+00  3.61109e-01
       H -3.39354e+00  3.52516e-01 -2.11702e-01
       H -2.20839e+00  1.10214e+00  4.29669e-01
       H -3.96990e+00  1.73430e+00  7.35681e-01
4
# CELL(abcABC): 1000.00000  1000.00000  1000.00000    90.00000    90.00000    90.00000  Step:          69  Bead:       0 positions{angstrom}  cell{angstrom}
       O -3.13701e+00  1.06456e+00  3.60015e-01
       H -3.38981e+00  3.48390e-01 -2.09530e-01
       H -2.21756e+00  1.10272e+00  4.38335e-01
       H -3.98369e+00  1.72144e+00  7.42193e-01
4
# CELL(abcABC): 1000.00000  1000.00000  1000.00000    90.00000    90.00000    90.00000  Step:          70  Bead:       0 positions{angstrom}  cell{angstrom}
       O -3.13654e+00  1.06560e+00  3.58970e-01
       H -3.38503e+00  3.43558e-01 -2.09438e-01
       H -2.22018e+00  1.10417e+00  4.47405e-01
       H -3.99326e+00  1.70834e+00  7.49629e-01
4
# CELL(abcABC): 1000.00000  1000.00000  1000.00000    90.00000    90.00000    90.00000  Step:          71  Bead:       0 positions{angstrom}  cell{angstrom}
       O -3.13665e+00  1.06682e+00  3.58024e-01
       H -3.38015e+00  3.36532e-01 -2.11701e-01
       H -2.21655e+00  1.10533e+00  4.56772e-01
       H -4.00003e+00  1.69473e+00  7.57546e-01
4
# CELL(abcABC): 1000.00000  1000.00000  1000.00000    90.00000    90.00000    90.00000  Step:          72  Bead:       0 positions{angstrom}  cell{angstrom}
       O -3.13739e+00  1.06802e+00  3.57036e-01
       H -3.37394e+00  3.29203e-01 -2.14211e-01
       H -2.20685e+00  1.10693e+00  4.67583e-01
       H -4.00428e+00  1.68156e+00  7.64923e-01
4
# CELL(abcABC): 1000.00000  1000.00000  1000.00000    90.00000    90.00000    90.00000  Step:          73  Bead:       0 positions{angstrom}  cell{angstrom}
       O -3.13855e+00  1.06926e+00  3.56113e-01
       H -3.36672e+00  3.21661e-01 -2.16980e-01
       H -2.19325e+00  1.10917e+00  4.78948e-01
       H -4.00661e+00  1.66711e+00  7.70982e-01
4
# CELL(abcABC): 1000.00000  1000.00000  1000.00000    90.00000    90.00000    90.00000  Step:          74  Bead:       0 positions{angstrom}  cell{angstrom}
       O -3.14007e+00  1.07043e+00  3.55336e-01
       H -3.35793e+00  3.14658e-01 -2.20750e-01
       H -2.17816e+00  1.11165e+00  4.89406e-01
       H -4.00645e+00  1.65312e+00  7.76627e-01
4
# CELL(abcABC): 1000.00000  1000.00000  1000.00000    90.00000    90.00000    90.00000  Step:          75  Bead:       0 positions{angstrom}  cell{angstrom}
       O -3.14158e+00  1.07157e+00  3.54544e-01
       H -3.34833e+00  3.07636e-01 -2.24388e-01
       H -2.16460e+00  1.11372e+00  5.00575e-01
       H -4.00564e+00  1.63992e+00  7.81667e-01
4
# CELL(abcABC): 1000.00000  1000.00000  1000.00000    90.00000    90.00000    90.00000  Step:          76  Bead:       0 positions{angstrom}  cell{angstrom}
       O -3.14318e+00  1.07249e+00  3.53604e-01
       H -3.33658e+00  3.02321e-01 -2.25876e-01
       H -2.15410e+00  1.11598e+00  5.11514e-01
       H -4.00242e+00  1.62839e+00  7.87125e-01
4
# CELL(abcABC): 1000.00000  1000.00000  1000.00000    90.00000    90.00000    90.00000  Step:          77  Bead:       0 positions{angstrom}  cell{angstrom}
       O -3.14459e+00  1.07325e+00  3.52606e-01
       H -3.32373e+00  2.99607e-01 -2.26116e-01
       H -2.14847e+00  1.11865e+00  5.22516e-01
       H -3.99846e+00  1.61628e+00  7.92220e-01
4
# CELL(abcABC): 1000.00000  1000.00000  1000.00000    90.00000    90.00000    90.00000  Step:          78  Bead:       0 positions{angstrom}  cell{angstrom}
       O -3.14576e+00  1.07390e+00  3.51758e-01
       H -3.31108e+00  2.97905e-01 -2.26088e-01
       H -2.14729e+00  1.12205e+00  5.32549e-01
       H -3.99388e+00  1.60426e+00  7.95611e-01
4
# CELL(abcABC): 1000.00000  1000.00000  1000.00000    90.00000    90.00000    90.00000  Step:          79  Bead:       0 positions{angstrom}  cell{angstrom}
       O -3.14673e+00  1.07453e+00  3.50877e-01
       H -3.29832e+00  2.98349e-01 -2.23671e-01
       H -2.15038e+00  1.12468e+00  5.41546e-01
       H -3.98812e+00  1.59128e+00  7.98187e-01
4
# CELL(abcABC): 1000.00000  1000.00000  1000.00000    90.00000    90.00000    90.00000  Step:          80  Bead:       0 positions{angstrom}  cell{angstrom}
       O -3.14751e+00  1.07506e+00  3.49902e-01
       H -3.28471e+00  3.00390e-01 -2.20410e-01
       H -2.15850e+00  1.12715e+00  5.50726e-01
       H -3.98119e+00  1.57831e+00  8.01220e-01
4
# CELL(abcABC): 1000.00000  1000.00000  1000.00000    90.00000    90.00000    90.00000  Step:          81  Bead:       0 positions{angstrom}  cell{angstrom}
       O -3.14807e+00  1.07537e+00  3.49021e-01
       H -3.26883e+00  3.04142e-01 -2.17355e-01
       H -2.17208e+00  1.13166e+00  5.59291e-01
       H -3.97461e+00  1.56518e+00  8.03587e-01
4
# CELL(abcABC): 1000.00000  1000.00000  1000.00000    90.00000    90.00000    90.00000  Step:          82  Bead:       0 positions{angstrom}  cell{angstrom}
       O -3.14836e+00  1.07575e+00  3.48093e-01
       H -3.25239e+00  3.07515e-01 -2.13668e-01
       H -2.18915e+00  1.13530e+00  5.67166e-01
       H -3.96931e+00  1.55216e+00  8.06758e-01
4
# CELL(abcABC): 1000.00000  1000.00000  1000.00000    90.00000    90.00000    90.00000  Step:          83  Bead:       0 positions{angstrom}  cell{angstrom}
       O -3.14849e+00  1.07602e+00  3.47224e-01
       H -3.23629e+00  3.10842e-01 -2.10250e-01
       H -2.20858e+00  1.13984e+00  5.74731e-01
       H -3.96400e+00  1.53996e+00  8.09555e-01
4
# CELL(abcABC): 1000.00000  1000.00000  1000.00000    90.00000    90.00000    90.00000  Step:          84  Bead:       0 positions{angstrom}  cell{angstrom}
       O -3.14847e+00  1.07627e+00  3.46451e-01
       H -3.21977e+00  3.12297e-01 -2.09105e-01
       H -2.22949e+00  1.14533e+00  5.82283e-01
       H -3.95990e+00  1.52900e+00  8.13132e-01
4
# CELL(abcABC): 1000.00000  1000.00000  1000.00000    90.00000    90.00000    90.00000  Step:          85  Bead:       0 positions{angstrom}  cell{angstrom}