4
# CELL(abcABC): 1000.00000  1000.00000  1000.00000    90.00000    90.00000    90.00000  Step:           0  Bead:       0 positions{angstrom}  cell{angstrom}
       O -3.14738e+00  1.06000e+00  3.63772e-01
       H -4.05786e+00  1.11762e+00  6.04988e-01
       H -2.86667e+00  1.49215e-01  3.33730e-01
       H -2.50174e+00  1.97791e+00 -2.73504e-02
4
# CELL(abcABC): 1000.00000  1000.00000  1000.00000    90.00000    90.00000    90.00000  Step:           1  Bead:       0 positions{angstrom}  cell{angstrom}
       O -3.14561e+00  1.06035e+00  3.63164e-01
       H -4.06799e+00  1.11001e+00  6.09458e-01
       H -2.86701e+00  1.48789e-01  3.35061e-01
       H -2.51934e+00  1.98040e+00 -2.35021e-02
4
# CELL(abcABC): 1000.00000  1000.00000  1000.00000    90.00000    90.00000    90.00000  Step:           2  Bead:       0 positions{angstrom}  cell{angstrom}
       O -3.14388e+00  1.06079e+00  3.62463e-01
       H -4.07746e+00  1.10181e+00  6.14427e-01
       H -2.86661e+00  1.48877e-01  3.36711e-01
       H -2.53775e+00  1.98145e+00 -1.89857e-02
4
# CELL(abcABC): 1000.00000  1000.00000  1000.00000    90.00000    90.00000    90.00000  Step:           3  Bead:       0 positions{angstrom}  cell{angstrom}
       O -3.14218e+00  1.06138e+00  3.61639e-01
       H -4.08406e+00  1.09168e+00  6.20768e-01
       H -2.86716e+00  1.50675e-01  3.39306e-01
       H -2.55766e+00  1.98043e+00 -1.48533e-02
4
# CELL(abcABC): 1000.00000  1000.00000  1000.00000    90.00000    90.00000    90.00000  Step:           4  Bead:       0 positions{angstrom}  cell{angstrom}
       O -3.14066e+00  1.06213e+00  3.60889e-01
       H -4.08745e+00  1.07971e+00  6.25289e-01
       H -2.86750e+00  1.53633e-01  3.41746e-01
       H -2.57806e+00  1.97758e+00 -9.91148e-03
4
# CELL(abcABC): 1000.00000  1000.00000  1000.00000    90.00000    90.00000    90.00000  Step:           5  Bead:       0 positions{angstrom}  cell{angstrom}
       O -3.13927e+00  1.06287e+00  3.60206e-01
       H -4.08753e+00  1.06728e+00  6.28596e-01
       H -2.86859e+00  1.58033e-01  3.45452e-01
       H -2.59886e+00  1.97385e+00 -6.06989e-03
4
# CELL(abcABC): 1000.00000  1000.00000  1000.00000    90.00000    90.00000    90.00000  Step:           6  Bead:       0 positions{angstrom}  cell{angstrom}
       O -3.13806e+00  1.06380e+00  3.59608e-01
       H -4.08324e+00  1.05486e+00  6.29897e-01
       H -2.87001e+00  1.60650e-01  3.48375e-01
       H -2.62093e+00  1.96893e+00 -8.09701e-04
4
# CELL(abcABC): 1000.00000  1000.00000  1000.00000    90.00000    90.00000    90.00000  Step:           7  Bead:       0 positions{angstrom}  cell{angstrom}
       O -3.13720e+00  1.06472e+00  3.58881e-01
       H -4.07348e+00  1.04247e+00  6.31456e-01
       H -2.87098e+00  1.62415e-01  3.52244e-01
       H -2.64341e+00  1.96497e+00  5.30709e-03
4
# CELL(abcABC): 1000.00000  1000.00000  1000.00000    90.00000    90.00000    90.00000  Step:           8  Bead:       0 positions{angstrom}  cell{angstrom}
       O -3.13671e+00  1.06570e+00  3.58266e-01
       H -4.05958e+00  1.03041e+00  6.31543e-01
       H -2.86995e+00  1.62575e-01  3.55565e-01
       H -2.66617e+00  1.96122e+00  1.16526e-02
4
# CELL(abcABC): 1000.00000  1000.00000  1000.00000    90.00000    90.00000    90.00000  Step:           9  Bead:       0 positions{angstrom}  cell{angstrom}
       O -3.13647e+00  1.06678e+00  3.57567e-01
       H -4.04391e+00  1.01806e+00  6.32333e-01
       H -2.86666e+00  1.62306e-01  3.59510e-01
       H -2.68883e+00  1.95677e+00  1.80225e-02
4
# CELL(abcABC): 1000.00000  1000.00000  1000.00000    90.00000    90.00000    90.00000  Step:          10  Bead:       0 positions{angstrom}  cell{angstrom}
       O -3.13637e+00  1.06773e+00  3.57013e-01
       H -4.02813e+00  1.00641e+00  6.32433e-01
       H -2.86177e+00  1.62449e-01  3.62669e-01
       H -2.71113e+00  1.95324e+00  2.35583e-02
4
# CELL(abcABC): 1000.00000  1000.00000  1000.00000    90.00000    90.00000    90.00000  Step:          11  Bead:       0 positions{angstrom}  cell{angstrom}
       O -3.13629e+00  1.06857e+00  3.56603e-01
       H -4.01404e+00  9.96336e-01  6.31866e-01
       H -2.85662e+00  1.62356e-01  3.65266e-01
       H -2.73169e+00  1.95006e+00  2.80239e-02
4
# CELL(abcABC): 1000.00000  1000.00000  1000.00000    90.00000    90.00000    90.00000  Step:          12  Bead:       0 positions{angstrom}  cell{angstrom}
       O -3.13626e+00  1.06930e+00  3.56253e-01
       H -4.00248e+00  9.87012e-01  6.32187e-01
       H -2.84997e+00  1.61439e-01  3.66619e-01
       H -2.75030e+00  1.94864e+00  3.19116e-02
4
# CELL(abcABC): 1000.00000  1000.00000  1000.00000    90.00000    90.00000    90.00000  Step:          13  Bead:       0 positions{angstrom}  cell{angstrom}
       O -3.13615e+00  1.06984e+00  3.55849e-01
       H -3.99627e+00  9.79214e-01  6.34501e-01
       H -2.84049e+00  1.61267e-01  3.67655e-01
       H -2.76783e+00  1.94808e+00  3.49719e-02
4
# CELL(abcABC): 1000.00000  1000.00000  1000.00000    90.00000    90.00000    90.00000  Step:          14  Bead:       0 positions{angstrom}  cell{angstrom}
       O -3.13590e+00  1.07010e+00  3.55365e-01
       H -3.99478e+00  9.72059e-01  6.39283e-01
       H -2.82911e+00  1.63080e-01  3.68297e-01
       H -2.78461e+00  1.94933e+00  3.72352e-02
4
# CELL(abcABC): 1000.00000  1000.00000  1000.00000    90.00000    90.00000    90.00000  Step:          15  Bead:       0 positions{angstrom}  cell{angstrom}
       O -3.13541e+00  1.06995e+00  3.54624e-01
       H -4.00108e+00  9.65309e-01  6.48285e-01
       H -2.81710e+00  1.67112e-01  3.68751e-01
       H -2.79806e+00  1.95437e+00  3.95363e-02
4
# CELL(abcABC): 1000.00000  1000.00000  1000.00000    90.00000    90.00000    90.00000  Step:          16  Bead:       0 positions{angstrom}  cell{angstrom}
       O -3.13489e+00  1.06942e+00  3.53871e-01
       H -4.01043e+00  9.59186e-01  6.58509e-01
       H -2.80418e+00  1.73950e-01  3.68893e-01
       H -2.80986e+00  1.96201e+00  4.11272e-02
4
# CELL(abcABC): 1000.00000  1000.00000  1000.00000    90.00000    90.00000    90.00000  Step:          17  Bead:       0 positions{angstrom}  cell{angstrom}
       O -3.13434e+00  1.06860e+00  3.53139e-01
       H -4.02101e+00  9.54594e-01  6.69825e-01
       H -2.79128e+00  1.82886e-01  3.67714e-01
       H -2.82105e+00  1.97074e+00  4.26168e-02
4
# CELL(abcABC): 1000.00000  1000.00000  1000.00000    90.00000    90.00000    90.00000  Step:          18  Bead:       0 positions{angstrom}  cell{angstrom}
       O -3.13392e+00  1.06744e+00  3.52471e-01
       H -4.03241e+00  9.51936e-01  6.81448e-01
       H -2.77627e+00  1.92620e-01  3.66109e-01
       H -2.83131e+00  1.98204e+00  4.31975e-02
4
# CELL(abcABC): 1000.00000  1000.00000  1000.00000    90.00000    90.00000    90.00000  Step:          19  Bead:       0 positions{angstrom}  cell{angstrom}
       O -3.13388e+00  1.06615e+00  3.51893e-01
       H -4.04117e+00  9.50202e-01  6.92916e-01
       H -2.76103e+00  2.01870e-01  3.63530e-01
       H -2.83838e+00  1.99500e+00  4.34830e-02
4
# CELL(abcABC): 1000.00000  1000.00000  1000.00000    90.00000    90.00000    90.00000  Step:          20  Bead:       0 positions{angstrom}  cell{angstrom}
       O -3.13421e+00  1.06481e+00  3.51511e-01
       H -4.04610e+00  9.49821e-01  7.01766e-01
       H -2.74578e+00  2.10662e-01  3.60934e-01
       H -2.84341e+00  2.00795e+00  4.32851e-02
4
# CELL(abcABC): 1000.00000  1000.00000  1000.00000    90.00000    90.00000    90.00000  Step:          21  Bead:       0 positions{angstrom}  cell{angstrom}
       O -3.13504e+00  1.06344e+00  3.51361e-01
       H -4.04687e+00  9.49611e-01  7.07812e-01
       H -2.72800e+00  2.18924e-01  3.59099e-01
       H -2.84723e+00  2.02163e+00  4.14548e-02
4
# CELL(abcABC): 1000.00000  1000.00000  1000.00000    90.00000    90.00000    90.00000  Step:          22  Bead:       0 positions{angstrom}  cell{angstrom}
       O -3.13637e+00  1.06203e+00  3.51472e-01
       H -4.04394e+00  9.48891e-01  7.13014e-01
       H -2.70727e+00  2.26115e-01  3.55551e-01
       H -2.84991e+00  2.03744e+00  3.80446e-02
4
# CELL(abcABC): 1000.00000  1000.00000  1000.00000    90.00000    90.00000    90.00000  Step:          23  Bead:       0 positions{angstrom}  cell{angstrom}
       O -3.13810e+00  1.06070e+00  3.51924e-01
       H -4.03628e+00  9.48722e-01  7.15919e-01
       H -2.68512e+00  2.32626e-01  3.52368e-01
       H -2.85214e+00  2.05224e+00  3.11463e-02
4
# CELL(abcABC): 1000.00000  1000.00000  1000.00000    90.00000    90.00000    90.00000  Step:          24  Bead:       0 positions{angstrom}  cell{angstrom}
       O -3.14015e+00  1.05938e+00  3.52503e-01
       H -4.02431e+00  9.47181e-01  7.17341e-01
       H -2.66258e+00  2.39449e-01  3.49522e-01
       H -2.85419e+00  2.06794e+00  2.33824e-02
4
# CELL(abcABC): 1000.00000  1000.00000  1000.00000    90.00000    90.00000    90.00000  Step:          25  Bead:       0 positions{angstrom}  cell{angstrom}
       O -3.14228e+00  1.05827e+00  3.53051e-01
       H -4.01012e+00  9.43836e-01  7.18774e-01
       H -2.64100e+00  2.45332e-01  3.47081e-01
       H -2.85603e+00  2.08296e+00  1.56861e-02
4
# CELL(abcABC): 1000.00000  1000.00000  1000.00000    90.00000    90.00000    90.00000  Step:          26  Bead:       0 positions{angstrom}  cell{angstrom}
       O -3.14437e+00  1.05739e+00  3.53563e-01
       H -3.99547e+00  9.38585e-01  7.19502e-01
       H -2.62043e+00  2.51206e-01  3.44789e-01
       H -2.85822e+00  2.09632e+00  9.13312e-03
4
# CELL(abcABC): 1000.00000  1000.00000  1000.00000    90.00000    90.00000    90.00000  Step:          27  Bead:       0 positions{angstrom}  cell{angstrom}
       O -3.14632e+00  1.05665e+00  3.54013e-01
       H -3.98255e+00  9.32592e-01  7.20461e-01
       H -2.60185e+00  2.57075e-01  3.42616e-01
       H -2.85875e+00  2.10825e+00  3.19809e-03
4
# CELL(abcABC): 1000.00000  1000.00000  1000.00000    90.00000    90.00000    90.00000  Step:          28  Bead:       0 positions{angstrom}  cell{angstrom}
       O -3.14781e+00  1.05607e+00  3.54244e-01
       H -3.97412e+00  9.22960e-01  7.23022e-01
       H -2.58536e+00  2.64382e-01  3.41246e-01
       H -2.85989e+00  2.11977e+00 -1.66405e-03
4
# CELL(abcABC): 1000.00000  1000.00000  1000.00000    90.00000    90.00000    90.00000  Step:          29  Bead:       0 positions{angstrom}  cell{angstrom}
       O -3.14884e+00  1.05562e+00  3.54291e-01
       H -3.96949e+00  9.11246e-01  7.26405e-01
       H -2.57293e+00  2.73225e-01  3.40481e-01
       H -2.86065e+00  2.12983e+00 -5.02752e-03
4
# CELL(abcABC): 1000.00000  1000.00000  1000.00000    90.00000    90.00000    90.00000  Step:          30  Bead:       0 positions{angstrom}  cell{angstrom}
       O -3.14934e+00  1.05523e+00  3.54086e-01
       H -3.96922e+00  8.98008e-01  7.32927e-01
       H -2.56404e+00  2.83560e-01  3.40762e-01
       H -2.86183e+00  2.13886e+00 -8.57636e-03
4
# CELL(abcABC): 1000.00000  1000.00000  1000.00000    90.00000    90.00000    90.00000  Step:          31  Bead:       0 positions{angstrom}  cell{angstrom}
       O -3.14951e+00  1.05492e+00  3.53742e-01
       H -3.97142e+00  8.82505e-01  7.41709e-01
       H -2.55771e+00  2.96210e-01  3.41025e-01
       H -2.86337e+00  2.14668e+00 -1.21518e-02
4
# CELL(abcABC): 1000.00000  1000.00000  1000.00000    90.00000    90.00000    90.00000  Step:          32  Bead:       0 positions{angstrom}  cell{angstrom}
       O -3.14929e+00  1.05491e+00  3.53060e-01
       H -3.97722e+00  8.62959e-01  7.52562e-01
       H -2.55355e+00  3.10658e-01  3.43076e-01
       H -2.86524e+00  2.15189e+00 -1.42274e-02
4
# CELL(abcABC): 1000.00000  1000.00000  1000.00000    90.00000    90.00000    90.00000  Step:          33  Bead:       0 positions{angstrom}  cell{angstrom}
       O -3.14887e+00  1.05528e+00  3.52178e-01
       H -3.98429e+00  8.41019e-01  7.65110e-01
       H -2.55093e+00  3.23718e-01  3.46136e-01
       H -2.86747e+00  2.15491e+00 -1.58466e-02
4
# CELL(abcABC): 1000.00000  1000.00000  1000.00000    90.00000    90.00000    90.00000  Step:          34  Bead:       0 positions{angstrom}  cell{angstrom}
       O -3.14831e+00  1.05596e+00  3.51386e-01
       H -3.98952e+00  8.17832e-01  7.76810e-01
       H -2.55117e+00  3.34958e-01  3.49970e-01
       H -2.87076e+00  2.15614e+00 -1.88075e-02
4
# CELL(abcABC): 1000.00000  1000.00000  1000.00000    90.00000    90.00000    90.00000  Step:          35  Bead:       0 positions{angstrom}  cell{angstrom}
       O -3.14796e+00  1.05688e+00  3.50667e-01
       H -3.98997e+00  7.94209e-01  7.86049e-01
       H -2.55269e+00  3.44874e-01  3.54808e-01
       H -2.87433e+00  2.15515e+00 -2.14739e-02
4
# CELL(abcABC): 1000.00000  1000.00000  1000.00000    90.00000    90.00000    90.00000  Step:          36  Bead:       0 positions{angstrom}  cell{angstrom}
       O -3.14795e+00  1.05801e+00  3.50099e-01
       H -3.98610e+00  7.70916e-01  7.92322e-01
       H -2.55311e+00  3.52992e-01  3.59008e-01
       H -2.87808e+00  2.15238e+00 -2.29196e-02
4
# CELL(abcABC): 1000.00000  1000.00000  1000.00000    90.00000    90.00000    90.00000  Step:          37  Bead:       0 positions{angstrom}  cell{angstrom}
       O -3.14837e+00  1.05948e+00  3.49588e-01
       H -3.97712e+00  7.49346e-01  7.97474e-01
       H -2.55122e+00  3.56882e-01  3.62771e-01
       H -2.88229e+00  2.14682e+00 -2.37310e-02
4
# CELL(abcABC): 1000.00000  1000.00000  1000.00000    90.00000    90.00000    90.00000  Step:          38  Bead:       0 positions{angstrom}  cell{angstrom}
       O -3.14902e+00  1.06117e+00  3.49430e-01
       H -3.96477e+00  7.28950e-01  7.98411e-01
       H -2.54710e+00  3.56179e-01  3.66142e-01
       H -2.88834e+00  2.14110e+00 -2.55222e-02
4
# CELL(abcABC): 1000.00000  1000.00000  1000.00000    90.00000    90.00000    90.00000  Step:          39  Bead:       0 positions{angstrom}  cell{angstrom}
       O -3.15018e+00  1.06312e+00  3.49356e-01
       H -3.94789e+00  7.09689e-01  7.96953e-01
       H -2.54066e+00  3.51629e-01  3.70144e-01
       H -2.89325e+00  2.13386e+00 -2.68971e-02
4
# CELL(abcABC): 1000.00000  1000.00000  1000.00000    90.00000    90.00000    90.00000  Step:          40  Bead:       0 positions{angstrom}  cell{angstrom}
       O -3.15161e+00  1.06506e+00  3.49267e-01
       H -3.92826e+00  6.92457e-01  7.93961e-01
       H -2.53274e+00  3.45939e-01  3.75359e-01
       H -2.89813e+00  2.12599e+00 -2.77063e-02
4
# CELL(abcABC): 1000.00000  1000.00000  1000.00000    90.00000    90.00000    90.00000  Step:          41  Bead:       0 positions{angstrom}  cell{angstrom}
       O -3.15311e+00  1.06689e+00  3.49260e-01
       H -3.90766e+00  6.77804e-01  7.88676e-01
       H -2.52387e+00  3.40893e-01  3.80332e-01
       H -2.90377e+00  2.11666e+00 -2.72873e-02
4
# CELL(abcABC): 1000.00000  1000.00000  1000.00000    90.00000    90.00000    90.00000  Step:          42  Bead:       0 positions{angstrom}  cell{angstrom}
       O -3.15463e+00  1.06868e+00  3.49397e-01
       H -3.88606e+00  6.62838e-01  7.82015e-01
       H -2.51524e+00  3.37586e-01  3.84976e-01
       H -2.90985e+00  2.10653e+00 -2.74490e-02
4
# CELL(abcABC): 1000.00000  1000.00000  1000.00000    90.00000    90.00000    90.00000  Step:          43  Bead:       0 positions{angstrom}  cell{angstrom}
       O -3.15588e+00  1.07018e+00  3.49594e-01
       H -3.86707e+00  6.49717e-01  7.74896e-01
       H -2.50762e+00  3.38490e-01  3.89012e-01
       H -2.91659e+00  2.09495e+00 -2.74936e-02
4
# CELL(abcABC): 1000.00000  1000.00000  1000.00000    90.00000    90.00000    90.00000  Step:          44  Bead:       0 positions{angstrom}  cell{angstrom}
       O -3.15672e+00  1.07147e+00  3.49794e-01
       H -3.85199e+00  6.36342e-01  7.67950e-01
       H -2.50138e+00  3.42574e-01  3.91619e-01
       H -2.92467e+00  2.08383e+00 -2.63305e-02
4
# CELL(abcABC): 1000.00000  1000.00000  1000.00000    90.00000    90.00000    90.00000  Step:          45  Bead:       0 positions{angstrom}  cell{angstrom}
       O -3.15698e+00  1.07252e+00  3.50029e-01
       H -3.84284e+00  6.23030e-01  7.61781e-01
       H -2.49598e+00  3.49957e-01  3.92364e-01
       H -2.93513e+00  2.07299e+00 -2.46368e-02
4
# CELL(abcABC): 1000.00000  1000.00000  1000.00000    90.00000    90.00000    90.00000  Step:          46  Bead:       0 positions{angstrom}  cell{angstrom}
       O -3.15677e+00  1.07334e+00  3.50269e-01
       H -3.83962e+00  6.10108e-01  7.56836e-01
       H -2.49203e+00  3.60404e-01  3.91524e-01
       H -2.94549e+00  2.06250e+00 -2.26511e-02
4
# CELL(abcABC): 1000.00000  1000.00000  1000.00000    90.00000    90.00000    90.00000  Step:          47  Bead:       0 positions{angstrom}  cell{angstrom}
       O -3.15609e+00  1.07377e+00  3.50624e-01
       H -3.84189e+00  5.96921e-01  7.53590e-01
       H -2.48888e+00  3.74627e-01  3.88691e-01
       H -2.95717e+00  2.05469e+00 -2.22126e-02
4
# CELL(abcABC): 1000.00000  1000.00000  1000.00000    90.00000    90.00000    90.00000  Step:          48  Bead:       0 positions{angstrom}  cell{angstrom}
       O -3.15505e+00  1.07399e+00  3.50998e-01
       H -3.84813e+00  5.83288e-01  7.51511e-01
       H -2.48598e+00  3.92258e-01  3.84031e-01
       H -2.97036e+00  2.04712e+00 -2.14161e-02
4
# CELL(abcABC): 1000.00000  1000.00000  1000.00000    90.00000    90.00000    90.00000  Step:          49  Bead:       0 positions{angstrom}  cell{angstrom}
       O -3.15387e+00  1.07393e+00  3.51335e-01
       H -3.85723e+00  5.70577e-01  7.50086e-01
       H -2.48121e+00  4.11337e-01  3.78489e-01
       H -2.98487e+00  2.04178e+00 -1.97875e-02
4
# CELL(abcABC): 1000.00000  1000.00000  1000.00000    90.00000    90.00000    90.00000  Step:          50  Bead:       0 positions{angstrom}  cell{angstrom}
       O -3.15249e+00  1.07365e+00  3.51891e-01
       H -3.86790e+00  5.60212e-01  7.47626e-01
       H -2.47652e+00  4.30254e-01  3.72149e-01
       H -3.00074e+00  2.03767e+00 -1.98114e-02
4
# CELL(abcABC): 1000.00000  1000.00000  1000.00000    90.00000    90.00000    90.00000  Step:          51  Bead:       0 positions{angstrom}  cell{angstrom}
       O -3.15126e+00  1.07310e+00  3.52616e-01
       H -3.87867e+00  5.52359e-01  7.43295e-01
       H -2.46954e+00  4.48803e-01  3.64913e-01
       H -3.01644e+00  2.03563e+00 -1.97630e-02
4
# CELL(abcABC): 1000.00000  1000.00000  1000.00000    90.00000    90.00000    90.00000  Step:          52  Bead:       0 positions{angstrom}  cell{angstrom}
       O -3.15028e+00  1.07244e+00  3.53630e-01
       H -3.88833e+00  5.47654e-01  7.37071e-01
       H -2.45942e+00  4.65036e-01  3.55923e-01
       H -3.03241e+00  2.03467e+00 -2.06352e-02
4
# CELL(abcABC): 1000.00000  1000.00000  1000.00000    90.00000    90.00000    90.00000  Step:          53  Bead:       0 positions{angstrom}  cell{angstrom}
       O -3.14968e+00  1.07156e+00  3.54790e-01
       H -3.89498e+00  5.47002e-01  7.27805e-01
       H -2.44591e+00  4.80326e-01  3.47096e-01
       H -3.04893e+00  2.03391e+00 -2.09558e-02
4
# CELL(abcABC): 1000.00000  1000.00000  1000.00000    90.00000    90.00000    90.00000  Step:          54  Bead:       0 positions{angstrom}  cell{angstrom}
       O -3.14941e+00  1.07063e+00  3.55842e-01
       H -3.89884e+00  5.48773e-01  7.17585e-01
       H -2.42934e+00  4.93772e-01  3.38770e-01
       H -3.06584e+00  2.03348e+00 -1.91133e-02
4
# CELL(abcABC): 1000.00000  1000.00000  1000.00000    90.00000    90.00000    90.00000  Step:          55  Bead:       0 positions{angstrom}  cell{angstrom}
       O -3.14952e+00  1.06959e+00  3.56974e-01
       H -3.90032e+00  5.53541e-01  7.06381e-01
       H -2.40991e+00  5.05022e-01  3.31060e-01
       H -3.08205e+00  2.03388e+00 -1.81725e-02
4
# CELL(abcABC): 1000.00000  1000.00000  1000.00000    90.00000    90.00000    90.00000  Step:          56  Bead:       0 positions{angstrom}  cell{angstrom}
       O -3.14993e+00  1.06842e+00  3.58169e-01
       H -3.89692e+00  5.60709e-01  6.94467e-01
       H -2.38925e+00  5.14326e-01  3.22440e-01
       H -3.09957e+00  2.03604e+00 -1.65951e-02
4
# CELL(abcABC): 1000.00000  1000.00000  1000.00000    90.00000    90.00000    90.00000  Step:          57  Bead:       0 positions{angstrom}  cell{angstrom}
       O -3.15042e+00  1.06713e+00  3.59314e-01
       H -3.89005e+00  5.69501e-01  6.82441e-01
       H -2.36984e+00  5.22261e-01  3.15244e-01
       H -3.11808e+00  2.03979e+00 -1.55546e-02
4
# CELL(abcABC): 1000.00000  1000.00000  1000.00000    90.00000    90.00000    90.00000  Step:          58  Bead:       0 positions{angstrom}  cell{angstrom}
       O -3.15090e+00  1.06587e+00  3.60390e-01
       H -3.88153e+00  5.77182e-01  6.70489e-01
       H -2.35175e+00  5.29954e-01  3.09390e-01
       H -3.13717e+00  2.04447e+00 -1.48340e-02
4
# CELL(abcABC): 1000.00000  1000.00000  1000.00000    90.00000    90.00000    90.00000  Step:          59  Bead:       0 positions{angstrom}  cell{angstrom}
       O -3.15116e+00  1.06462e+00  3.61207e-01
       H -3.87318e+00  5.83066e-01  6.59784e-01
       H -2.33630e+00  5.38460e-01  3.06113e-01
       H -3.15681e+00  2.04988e+00 -1.38133e-02
4
# CELL(abcABC): 1000.00000  1000.00000  1000.00000    90.00000    90.00000    90.00000  Step:          60  Bead:       0 positions{angstrom}  cell{angstrom}
       O -3.15104e+00  1.06357e+00  3.61861e-01
       H -3.86862e+00  5.85185e-01  6.51156e-01
       H -2.32390e+00  5.46978e-01  3.02461e-01
       H -3.17568e+00  2.05585e+00 -1.19134e-02
4
# CELL(abcABC): 1000.00000  1000.00000  1000.00000    90.00000    90.00000    90.00000  Step:          61  Bead:       0 positions{angstrom}  cell{angstrom}
       O -3.15051e+00  1.06280e+00  3.62293e-01
       H -3.86690e+00  5.82414e-01  6.44756e-01
       H -2.31465e+00  5.55973e-01  2.98857e-01
       H -3.19507e+00  2.06199e+00 -8.77673e-03
4
# CELL(abcABC): 1000.00000  1000.00000  1000.00000    90.00000    90.00000    90.00000  Step:          62  Bead:       0 positions{angstrom}  cell{angstrom}
       O -3.14938e+00  1.06237e+00  3.62597e-01
       H -3.86983e+00  5.74103e-01  6.40492e-01
       H -2.31127e+00  5.65095e-01  2.96140e-01
       H -3.21346e+00  2.06792e+00 -6.60762e-03
4
# CELL(abcABC): 1000.00000  1000.00000  1000.00000    90.00000    90.00000    90.00000  Step:          63  Bead:       0 positions{angstrom}  cell{angstrom}
       O -3.14775e+00  1.06211e+00  3.62507e-01
       H -3.87532e+00  5.62592e-01  6.38904e-01
       H -2.31263e+00  5.73714e-01  2.94623e-01
       H -3.23242e+00  2.07494e+00 -2.07750e-03
4
# CELL(abcABC): 1000.00000  1000.00000  1000.00000    90.00000    90.00000    90.00000  Step:          64  Bead:       0 positions{angstrom}  cell{angstrom}
       O -3.14587e+00  1.06209e+00  3.62178e-01
       H -3.88084e+00  5.48295e-01  6.39885e-01
       H -2.31731e+00  5.81801e-01  2.94420e-01
       H -3.25202e+00  2.08152e+00  2.35802e-03
4
# CELL(abcABC): 1000.00000  1000.00000  1000.00000    90.00000    90.00000    90.00000  Step:          65  Bead:       0 positions{angstrom}  cell{angstrom}
       O -3.14391e+00  1.06221e+00  3.61724e-01
       H -3.88659e+00  5.32892e-01  6.40664e-01
       H -2.32380e+00  5.90187e-01  2.95209e-01
       H -3.27093e+00  2.08658e+00  7.99934e-03
4
# CELL(abcABC): 1000.00000  1000.00000  1000.00000    90.00000    90.00000    90.00000  Step:          66  Bead:       0 positions{angstrom}  cell{angstrom}
       O -3.14209e+00  1.06240e+00  3.61081e-01
       H -3.89022e+00  5.19726e-01  6.42333e-01
       H -2.33110e+00  5.95427e-01  2.97303e-01
       H -3.28898e+00  2.09145e+00  1.44546e-02
4
# CELL(abcABC): 1000.00000  1000.00000  1000.00000    90.00000    90.00000    90.00000  Step:          67  Bead:       0 positions{angstrom}  cell{angstrom}
       O -3.14049e+00  1.06282e+00  3.60378e-01
       H -3.89015e+00  5.06530e-01  6.42877e-01
       H -2.33732e+00  5.98429e-01  3.00740e-01
       H -3.30818e+00  2.09505e+00  2.16287e-02
4
# CELL(abcABC): 1000.00000  1000.00000  1000.00000    90.00000    90.00000    90.00000  Step:          68  Bead:       0 positions{angstrom}  cell{angstrom}
       O -3.13935e+00  1.06332e+00  3.59801e-01
       H -3.88524e+00  4.94708e-01  6.42433e-01
       H -2.34130e+00  5.98726e-01  3.03245e-01
       H -3.32715e+00  2.09868e+00  2.87274e-02
4
# CELL(abcABC): 1000.00000  1000.00000  1000.00000    90.00000    90.00000    90.00000  Step:          69  Bead:       0 positions{angstrom}  cell{angstrom}
       O -3.13865e+00  1.06404e+00  3.59047e-01
       H -3.87624e+00  4.83380e-01  6.42738e-01
       H -2.34327e+00  5.96206e-01  3.07159e-01
       H -3.34535e+00  2.10104e+00  3.64667e-02
4
# CELL(abcABC): 1000.00000  1000.00000  1000.00000    90.00000    90.00000    90.00000  Step:          70  Bead:       0 positions{angstrom}  cell{angstrom}
       O -3.13861e+00  1.06471e+00  3.58317e-01
       H -3.86253e+00  4.74828e-01  6.41160e-01
       H -2.34202e+00  5.91779e-01  3.11175e-01
       H -3.36093e+00  2.10338e+00  4.56243e-02
4
# CELL(abcABC): 1000.00000  1000.00000  1000.00000    90.00000    90.00000    90.00000  Step:          71  Bead:       0 positions{angstrom}  cell{angstrom}
       O -3.13897e+00  1.06551e+00  3.57674e-01
       H -3.84586e+00  4.67108e-01  6.37364e-01
       H -2.33851e+00  5.84775e-01  3.15044e-01
       H -3.37534e+00  2.10543e+00  5.57580e-02
4
# CELL(abcABC): 1000.00000  1000.00000  1000.00000    90.00000    90.00000    90.00000  Step:          72  Bead:       0 positions{angstrom}  cell{angstrom}
       O -3.13971e+00  1.06622e+00  3.56990e-01
       H -3.82622e+00  4.61085e-01  6.33286e-01
       H -2.33293e+00  5.76798e-01  3.19899e-01
       H -3.38882e+00  2.10810e+00  6.58298e-02
4
# CELL(abcABC): 1000.00000  1000.00000  1000.00000    90.00000    90.00000    90.00000  Step:          73  Bead:       0 positions{angstrom}  cell{angstrom}
       O -3.14059e+00  1.06696e+00  3.56365e-01
       H -3.80553e+00  4.55523e-01  6.28919e-01
       H -2.32662e+00  5.69141e-01  3.24979e-01
       H -3.40192e+00  2.10965e+00  7.50407e-02
4
# CELL(abcABC): 1000.00000  1000.00000  1000.00000    90.00000    90.00000    90.00000  Step:          74  Bead:       0 positions{angstrom}  cell{angstrom}
       O -3.14151e+00  1.06761e+00  3.55865e-01
       H -3.78489e+00  4.49660e-01  6.23606e-01
       H -2.32069e+00  5.62529e-01  3.29029e-01
       H -3.41393e+00  2.11173e+00  8.42433e-02
4
# CELL(abcABC): 1000.00000  1000.00000  1000.00000    90.00000    90.00000    90.00000  Step:          75  Bead:       0 positions{angstrom}  cell{angstrom}
       O -3.14211e+00  1.06829e+00  3.55309e-01
       H -3.76671e+00  4.41322e-01  6.18626e-01
       H -2.31667e+00  5.57261e-01  3.33894e-01
       H -3.42654e+00  2.11460e+00  9.31859e-02
4
# CELL(abcABC): 1000.00000  1000.00000  1000.00000    90.00000    90.00000    90.00000  Step:          76  Bead:       0 positions{angstrom}  cell{angstrom}
       O -3.14253e+00  1.06883e+00  3.54557e-01
       H -3.75084e+00  4.30960e-01  6.15992e-01
       H -2.31471e+00  5.54684e-01  3.38812e-01
       H -3.43777e+00  2.11902e+00  1.02833e-01
4
# CELL(abcABC): 1000.00000  1000.00000  1000.00000    90.00000    90.00000    90.00000  Step:          77  Bead:       0 positions{angstrom}  cell{angstrom}
       O -3.14253e+00  1.06931e+00  3.53692e-01
       H -3.73890e+00  4.18879e-01  6.14829e-01
       H -2.31532e+00  5.55471e-01  3.44193e-01
       H -3.44907e+00  2.12261e+00  1.12342e-01
4
# CELL(abcABC): 1000.00000  1000.00000  1000.00000    90.00000    90.00000    90.00000  Step:          78  Bead:       0 positions{angstrom}  cell{angstrom}
       O -3.14215e+00  1.06977e+00  3.52929e-01
       H -3.73206e+00  4.03696e-01  6.14134e-01
       H -2.31692e+00  5.60075e-01  3.49050e-01
       H -3.46028e+00  2.12594e+00  1.20304e-01
4
# CELL(abcABC): 1000.00000  1000.00000  1000.00000    90.00000    90.00000    90.00000  Step:          79  Bead:       0 positions{angstrom}  cell{angstrom}
       O -3.14159e+00  1.07024e+00  3.52103e-01
       H -3.72921e+00  3.87509e-01  6.15743e-01
       H -2.31840e+00  5.66855e-01  3.53324e-01
       H -3.47058e+00  2.12780e+00  1.27523e-01
4
# CELL(abcABC): 1000.00000  1000.00000  1000.00000    90.00000    90.00000    90.00000  Step:          80  Bead:       0 positions{angstrom}  cell{angstrom}
       O -3.14099e+00  1.07059e+00  3.51182e-01
       H -3.72826e+00  3.71423e-01  6.17867e-01
       H -2.31986e+00  5.76114e-01  3.58184e-01
       H -3.47961e+00  2.12905e+00  1.35155e-01
4
# CELL(abcABC): 1000.00000  1000.00000  1000.00000    90.00000    90.00000    90.00000  Step:          81  Bead:       0 positions{angstrom}  cell{angstrom}
       O -3.14044e+00  1.07061e+00  3.50377e-01
       H -3.72640e+00  3.57424e-01  6.19325e-01
       H -2.32143e+00  5.89601e-01  3.62716e-01
       H -3.48855e+00  2.12934e+00  1.41952e-01
4
# CELL(abcABC): 1000.00000  1000.00000  1000.00000    90.00000    90.00000    90.00000  Step:          82  Bead:       0 positions{angstrom}  cell{angstrom}
       O -3.14001e+00  1.07053e+00  3.49559e-01
       H -3.72418e+00  3.45102e-01  6.21077e-01
       H -2.32110e+00  6.03689e-01  3.66641e-01
       H -3.49800e+00  2.12881e+00  1.49261e-01
4
# CELL(abcABC): 1000.00000  1000.00000  1000.00000    90.00000    90.00000    90.00000  Step:          83  Bead:       0 positions{angstrom}  cell{angstrom}
       O -3.13982e+00  1.07014e+00  3.48849e-01
       H -3.72154e+00  3.36279e-01  6.22438e-01
       H -2.31837e+00  6.19470e-01  3.70014e-01
       H -3.50635e+00  2.12806e+00  1.55801e-01
4
# CELL(abcABC): 1000.00000  1000.00000  1000.00000    90.00000    90.00000    90.00000  Step:          84  Bead:       0 positions{angstrom}  cell{angstrom}
       O -3.13989e+00  1.06950e+00  3.48293e-01
       H -3.71700e+00  3.30243e-01  6.21732e-01
       H -2.31359e+00  6.36316e-01  3.72708e-01
       H -3.51454e+00  2.12736e+00  1.62631e-01
4
# CELL(abcABC): 1000.00000  1000.00000  1000.00000    90.00000    90.00000    90.00000  Step:          85  Bead:       0 positions{angstrom}  cell{angstrom}