11115
# CELL(abcABC):   47.66706    47.66706    47.66706    90.00000    90.00000    90.00000  Step:       10000  Bead:       0 positions{angstrom}  cell{angstrom}
       C  3.13536e-01 -1.63068e+00  7.44645e+00
       H -3.19346e-01 -1.10249e+00  6.67942e+00
       H  9.96546e-01 -1.00537e+00  7.97065e+00
       H -4.13328e-01 -2.01624e+00  8.21464e+00
       C  9.38013e-01 -2.75764e+00  6.81236e+00
       O  5.97743e-01 -3.85124e+00  7.04562e+00
       N  1.92687e+00 -2.42103e+00  6.00476e+00
       H  2.07442e+00 -1.46479e+00  5.72729e+00
       C  2.92256e+00 -3.34970e+00  5.39887e+00
       H  2.60279e+00 -4.35633e+00  5.67740e+00
       C  2.88675e+00 -3.22390e+00  3.90171e+00
       H  3.31854e+00 -2.22277e+00  3.64244e+00
       H  1.79998e+00 -3.13134e+00  3.57745e+00
       C  3.41549e+00 -4.30109e+00  3.10109e+00
       O  4.26475e+00 -4.14875e+00  2.18989e+00
       O  3.00109e+00 -5.46524e+00  3.40002e+00
       H  3.36885e+00 -6.34591e+00  2.90361e+00
       C  4.38409e+00 -3.14106e+00  5.99860e+00
       O  5.35740e+00 -2.91215e+00  5.30976e+00
       N  4.53246e+00 -3.24594e+00  7.37336e+00
       H  5.48317e+00 -3.28568e+00  7.73064e+00
       H  3.75351e+00 -3.58065e+00  7.86705e+00
       O -1.79806e+01 -1.49896e+01 -7.10111e+00
       H -1.84680e+01 -1.56311e+01 -6.55212e+00
       H -1.79061e+01 -1.42682e+01 -6.43586e+00
       O -2.23961e+01 -1.61743e+01 -2.46146e+01
       H -2.18715e+01 -1.69170e+01 -2.47798e+01
       H -2.16499e+01 -1.54948e+01 -2.45195e+01
       O -2.51947e+01 -6.90755e+00 -3.23011e+00
       H -2.43076e+01 -6.81201e+00 -3.67299e+00
       H -2.57617e+01 -6.15565e+00 -3.53616e+00
       O -1.56891e+01 -2.39486e+01 -1.49688e+01
       H -1.58466e+01 -2.30040e+01 -1.50109e+01
       H -1.57681e+01 -2.42292e+01 -1.58964e+01
       O -1.53873e+01 -1.58966e+01 -1.17240e+01
       H -1.50677e+01 -1.67774e+01 -1.15849e+01
       H -1.47706e+01 -1.55161e+01 -1.10451e+01
       O -2.63816e+01 -1.71687e+01 -1.94670e+01
       H -2.62450e+01 -1.76111e+01 -1.86015e+01
       H -2.57442e+01 -1.76722e+01 -1.99616e+01
       O -2.24941e+01 -2.12247e+01 -1.51788e+01
       H -2.16698e+01 -2.08400e+01 -1.49232e+01
       H -2.22247e+01 -2.18803e+01 -1.58255e+01
       O -1.90819e+01 -1.78379e+01 -8.11414e+00
       H -1.88802e+01 -1.72200e+01 -7.42811e+00
       H -1.97650e+01 -1.74208e+01 -8.63065e+00
       O -1.42751e+01 -2.45379e+01 -2.17746e+01
       H -1.41672e+01 -2.49922e+01 -2.09542e+01
       H -1.51788e+01 -2.41217e+01 -2.16235e+01
       O -6.38027e+00 -2.88656e+01 -9.13105e+00
       H -5.93891e+00 -2.85628e+01 -8.29682e+00
       H -6.05415e+00 -2.82399e+01 -9.81853e+00
       O -1.32833e+01 -1.65072e+01 -2.02994e+01
       H -1.32227e+01 -1.74083e+01 -2.00059e+01
       H -1.28095e+01 -1.66463e+01 -2.11539e+01
       O -3.85473e+00  5.64284e-01 -7.56130e+00
       H -4.58024e+00 -9.73389e-02 -7.71856e+00
       H -4.07090e+00  1.06900e+00 -6.83576e+00
       O -1.24576e+01 -1.69682e+01 -2.29117e+01
       H -1.20089e+01 -1.77496e+01 -2.31200e+01
       H -1.33172e+01 -1.71506e+01 -2.33945e+01
       O -1.80011e+01 -4.88268e+00 -1.02169e+01
       H -1.71074e+01 -4.63785e+00 -9.92542e+00
       H -1.77708e+01 -5.59669e+00 -1.08295e+01
       O -1.51372e+01 -3.16100e+01 -2.32855e+01
       H -1.56399e+01 -3.10283e+01 -2.38244e+01
       H -1.45383e+01 -3.09752e+01 -2.28259e+01
       O -3.75083e+00 -2.31554e+01 -1.21992e+01
       H -3.38344e+00 -2.25712e+01 -1.15343e+01
       H -3.45145e+00 -2.25986e+01 -1.29467e+01
       O -2.61072e+01 -2.19520e+01 -6.67040e+00
       H -2.53828e+01 -2.14394e+01 -7.02737e+00
       H -2.65188e+01 -2.21548e+01 -7.54570e+00
       O -1.12178e+01 -1.47582e+01 -2.16378e+01
       H -1.19083e+01 -1.40891e+01 -2.17362e+01
       H -1.17132e+01 -1.54856e+01 -2.20374e+01
       O -1.70430e+01 -1.73276e+01 -4.16048e+00
       H -1.60719e+01 -1.72505e+01 -4.34405e+00
       H -1.72263e+01 -1.81451e+01 -3.61581e+00
       O -1.45343e+01 -1.47980e+01 -2.49821e+01
       H -1.47394e+01 -1.57861e+01 -2.49472e+01
       H -1.54162e+01 -1.44473e+01 -2.52255e+01
       O -1.67529e+01 -2.46785e+01 -5.60349e+00
       H -1.65885e+01 -2.57011e+01 -5.75175e+00
       H -1.65105e+01 -2.47130e+01 -4.66246e+00
       O -3.57026e+01 -9.88583e+00 -2.24344e+01
       H -3.52585e+01 -9.17734e+00 -2.21089e+01
       H -3.59896e+01 -9.56248e+00 -2.32979e+01
       O -3.20046e-01 -6.10331e+00 -2.41111e+01
       H -6.83619e-01 -5.94516e+00 -2.49813e+01
       H  3.10550e-01 -6.85547e+00 -2.43981e+01
       O -3.11830e+01 -1.27934e+01 -1.02932e+01
       H -3.19943e+01 -1.26025e+01 -1.08167e+01
       H -3.09488e+01 -1.18420e+01 -1.00373e+01
       O -1.65789e+01 -2.47999e+01 -2.40217e+01
       H -1.64756e+01 -2.42864e+01 -2.48434e+01
       H -1.58764e+01 -2.54844e+01 -2.41295e+01
       O -1.71553e+01 -1.72025e+01 -1.62366e+01
       H -1.79716e+01 -1.74431e+01 -1.67546e+01
       H -1.72158e+01 -1.62493e+01 -1.64498e+01
       O -7.30175e+00  8.77453e+00 -5.72751e+00
       H -6.48335e+00  9.08992e+00 -5.35704e+00
       H -6.96383e+00  8.03271e+00 -6.26005e+00
       O -1.47643e+01  3.14560e+00 -6.27041e+00
       H -1.47847e+01  3.75605e+00 -5.52183e+00
       H -1.53040e+01  2.34614e+00 -5.94974e+00
       O -1.25859e+01 -1.33597e+01 -5.67462e+00
       H -1.22525e+01 -1.26528e+01 -5.09810e+00
       H -1.18871e+01 -1.33349e+01 -6.37914e+00
       O -7.66372e+00 -1.89432e+01 -1.79034e+01
       H -7.56336e+00 -1.94994e+01 -1.87256e+01
       H -8.11044e+00 -1.96230e+01 -1.73396e+01
       O  6.39929e-02 -1.04975e+00 -2.88144e+01
       H -3.25347e-01 -9.26217e-01 -2.97498e+01
       H -6.85657e-01 -1.43930e+00 -2.83878e+01
       O  6.19055e-01 -3.13514e+01 -1.28919e+01
       H  1.57563e+00 -3.13074e+01 -1.25528e+01
       H  7.28021e-01 -3.19469e+01 -1.36512e+01
       O -2.99939e-01  9.78088e-01 -1.15866e+01
       H -4.31783e-01  1.90084e-01 -1.09299e+01
       H -1.03269e+00  1.60851e+00 -1.12889e+01
       O -2.72791e+01 -1.88199e+01 -1.30615e+01
       H -2.63180e+01 -1.90450e+01 -1.32710e+01
       H -2.73740e+01 -1.85868e+01 -1.21407e+01
       O -9.75441e+00 -1.53024e+01 -1.95186e+01
       H -1.02743e+01 -1.57803e+01 -1.89380e+01
       H -1.04400e+01 -1.51198e+01 -2.01700e+01
       O -2.01314e+01 -2.03389e+01 -2.51083e+01
       H -2.06551e+01 -1.97359e+01 -2.45616e+01
       H -1.91760e+01 -2.01547e+01 -2.48883e+01
       O -2.05206e+01 -9.55448e+00 -1.86608e-01
       H -2.12045e+01 -1.01242e+01  2.35090e-01
       H -2.07138e+01 -9.60652e+00 -1.12757e+00
       O -1.86890e+01 -3.09892e+01 -8.78662e+00
       H -1.78649e+01 -3.06831e+01 -9.23211e+00
       H -1.84922e+01 -3.04683e+01 -7.94061e+00
       O -5.37903e+00 -5.12426e+00  7.31042e+00
       H -6.01578e+00 -5.13343e+00  6.62593e+00
       H -5.43882e+00 -5.96903e+00  7.76274e+00
       O -2.79207e+00 -1.30914e+01 -2.95967e+01
       H -1.93754e+00 -1.33181e+01 -2.91690e+01
       H -2.54968e+00 -1.32032e+01 -3.05220e+01
       O -5.50385e+00 -2.68106e+01 -2.07376e+01
       H -6.10486e+00 -2.70570e+01 -1.99913e+01
       H -5.30568e+00 -2.59205e+01 -2.05330e+01
       O -1.94628e+01 -1.14450e+01 -1.12167e+01
       H -1.93658e+01 -1.22857e+01 -1.07827e+01
       H -2.02552e+01 -1.11850e+01 -1.06837e+01
       O -4.57576e+00 -8.63856e+00 -1.44849e+01
       H -3.76042e+00 -8.74725e+00 -1.49936e+01
       H -5.17124e+00 -9.15299e+00 -1.50299e+01
       O -2.15481e+01 -5.32638e+01 -1.95548e+01
       H -2.22318e+01 -5.29928e+01 -1.89053e+01
       H -2.09546e+01 -5.25402e+01 -1.95266e+01
       O -1.79815e+01 -1.60071e+01 -4.49681e+01
       H -1.75581e+01 -1.51648e+01 -4.52303e+01
       H -1.75946e+01 -1.66389e+01 -4.55400e+01
       O -1.14620e+01 -1.59412e+01 -3.25071e+01
       H -1.14259e+01 -1.58754e+01 -3.34530e+01
       H -1.22806e+01 -1.54439e+01 -3.23737e+01
       O -2.31009e+01 -1.79721e+01 -1.13191e+01
       H -2.31527e+01 -1.71533e+01 -1.19377e+01
       H -2.23272e+01 -1.84932e+01 -1.16843e+01
       O -1.45485e+01 -8.22802e+00 -9.62109e+00
       H -1.53550e+01 -8.49203e+00 -1.01238e+01
       H -1.49742e+01 -8.00419e+00 -8.78900e+00
       O -1.07795e+01 -1.98073e+01 -1.42413e+01
       H -1.10510e+01 -2.04427e+01 -1.35167e+01
       H -1.17359e+01 -1.97199e+01 -1.45894e+01
       O -9.92386e-01 -4.54304e+00  4.19762e+00
       H -9.26887e-01 -3.64070e+00  3.83160e+00
       H -6.59677e-01 -5.08137e+00  3.43241e+00
       O -4.33733e+00  4.12630e+00  3.93618e+00
       H -4.22253e+00  5.04975e+00  4.24044e+00
       H -4.24304e+00  3.60685e+00  4.75131e+00
       O -3.15674e-01 -7.92901e+00 -1.12813e+01
       H -6.45703e-01 -8.85429e+00 -1.15236e+01
       H  6.23431e-01 -8.19406e+00 -1.15028e+01
       O -1.26134e+01 -5.05456e+00 -6.23154e+00
       H -1.35038e+01 -5.28573e+00 -6.42105e+00
       H -1.22360e+01 -5.86035e+00 -6.60418e+00
       O -6.20270e+00 -8.46113e-01 -7.76465e+00
       H -6.40202e+00 -1.68559e+00 -8.10925e+00
       H -7.13058e+00 -6.55624e-01 -7.53497e+00
       O -1.47467e+01 -2.08018e+01 -5.30284e+00
       H -1.42821e+01 -2.11739e+01 -6.06649e+00
       H -1.56943e+01 -2.09094e+01 -5.51803e+00
       O -1.50796e+01 -2.63687e+01 -2.69603e+01
       H -1.52340e+01 -2.64914e+01 -2.79366e+01
       H -1.44703e+01 -2.70317e+01 -2.68497e+01
       O -1.89684e+01 -2.69584e+01 -1.39849e+01
       H -1.93888e+01 -2.61331e+01 -1.37734e+01
       H -1.94694e+01 -2.75846e+01 -1.34600e+01
       O -1.27072e+01 -3.02737e+01 -1.25880e+00
       H -1.25688e+01 -3.12026e+01 -1.66439e+00
       H -1.28906e+01 -2.98313e+01 -2.08483e+00
       O  1.49045e+00  4.78276e+00 -3.83874e+00
       H  1.17702e+00  3.95452e+00 -3.37986e+00
       H  6.81839e-01  5.27463e+00 -3.60858e+00
       O -1.33804e+01 -2.97257e+01 -2.21498e+01
       H -1.36271e+01 -2.89042e+01 -2.19788e+01
       H -1.26670e+01 -2.99501e+01 -2.14923e+01
       O -1.04601e+01 -3.94406e+00 -3.31207e+01
       H -9.96069e+00 -4.49774e+00 -3.36998e+01
       H -1.10865e+01 -3.48741e+00 -3.36286e+01
       O -2.28612e+01 -2.15283e+01 -6.61147e+00
       H -2.29743e+01 -2.24385e+01 -6.20907e+00
       H -2.34250e+01 -2.15740e+01 -7.41079e+00
       O -1.13951e+01 -3.63241e+01 -2.49668e+01
       H -1.05169e+01 -3.60825e+01 -2.46365e+01
       H -1.18168e+01 -3.64497e+01 -2.40861e+01
       O -6.22652e+00 -2.02181e+01 -1.37112e+01
       H -6.51441e+00 -2.05846e+01 -1.28649e+01
       H -6.29777e+00 -2.09465e+01 -1.43177e+01
       O -7.73034e+00 -1.63134e+01 -1.67052e+01
       H -8.05636e+00 -1.67586e+01 -1.58944e+01
       H -7.43263e+00 -1.70501e+01 -1.72351e+01
       O -1.22825e+01 -3.25911e+01 -2.52580e+00
       H -1.14736e+01 -3.26564e+01 -2.96962e+00
       H -1.29518e+01 -3.27364e+01 -3.28034e+00
       O -3.34150e+01 -7.07290e+00 -1.01491e+01
       H -3.26632e+01 -7.62520e+00 -1.02338e+01
       H -3.31435e+01 -6.29522e+00 -1.06967e+01
       O -2.01549e+01 -2.23945e+01 -1.98959e+01
       H -1.94517e+01 -2.16893e+01 -1.98480e+01
       H -1.94930e+01 -2.31533e+01 -2.02296e+01
       O -1.92410e+01 -7.30713e+00 -2.90211e+01
       H -1.87321e+01 -7.37473e+00 -2.81812e+01
       H -1.84954e+01 -7.18251e+00 -2.96273e+01
       O -2.25527e+01 -1.35409e+01 -2.09540e+01
       H -2.18757e+01 -1.30434e+01 -2.06157e+01
       H -2.21883e+01 -1.44193e+01 -2.11366e+01
       O -2.11699e+01 -1.78512e+01 -3.62211e+00
       H -2.12542e+01 -1.77924e+01 -2.67019e+00
       H -2.19115e+01 -1.83822e+01 -3.89914e+00
       O -4.85777e+00 -2.16435e+01 -9.73837e+00
       H -5.16268e+00 -2.20017e+01 -1.05888e+01
       H -5.35664e+00 -2.21804e+01 -9.06176e+00
       O -2.16976e+01 -2.65158e+01 -2.63275e+01
       H -2.16664e+01 -2.73084e+01 -2.57493e+01
       H -2.16558e+01 -2.68925e+01 -2.72208e+01
       O -1.75548e+01 -1.40994e+01 -1.65175e+01
       H -1.84643e+01 -1.39797e+01 -1.68610e+01
       H -1.69626e+01 -1.37740e+01 -1.71968e+01
       O -2.39851e+01 -2.78573e+01 -7.42814e+00
       H -2.42651e+01 -2.79870e+01 -6.48816e+00
       H -2.31769e+01 -2.73620e+01 -7.27683e+00
       O -2.47051e+01 -3.11352e+01 -3.10946e+01
       H -2.38377e+01 -3.10333e+01 -3.14874e+01
       H -2.48344e+01 -3.03483e+01 -3.06559e+01
       O -6.79737e+00 -1.10048e+01  6.83134e+00
       H -7.09954e+00 -1.00995e+01  7.12181e+00
       H -6.57028e+00 -1.14251e+01  7.70953e+00
       O -3.57676e+01 -7.38653e+00 -5.21601e+00
       H -3.51058e+01 -7.22114e+00 -5.84215e+00
       H -3.62212e+01 -8.24577e+00 -5.53134e+00
       O -1.43888e+01 -1.81619e+01 -4.74210e+00
       H -1.41759e+01 -1.83228e+01 -3.76699e+00
       H -1.47761e+01 -1.90461e+01 -5.02776e+00
       O -1.87871e+01 -2.17307e+01 -3.11481e+01
       H -1.90301e+01 -2.25928e+01 -3.08695e+01
       H -1.89525e+01 -2.10916e+01 -3.04470e+01
       O -8.40078e+00 -2.69544e+01 -7.94567e+00
       H -8.08577e+00 -2.61109e+01 -8.40534e+00
       H -7.96822e+00 -2.76542e+01 -8.51101e+00
       O -1.11355e+01 -1.71660e+01 -1.77663e+01
       H -1.17926e+01 -1.68100e+01 -1.70999e+01
       H -1.06603e+01 -1.78057e+01 -1.72054e+01
       O -1.92815e+01  6.95228e+00 -1.05743e+01
       H -1.96550e+01  7.85418e+00 -1.05623e+01
       H -1.93659e+01  6.73206e+00 -1.14842e+01
       O -1.07333e+01 -2.73772e+01 -2.04810e+01
       H -1.05901e+01 -2.72606e+01 -2.14250e+01
       H -1.06890e+01 -2.83307e+01 -2.04294e+01
       O -1.44260e+01 -2.42794e+01 -3.21891e+01
       H -1.38201e+01 -2.38983e+01 -3.28217e+01
       H -1.46070e+01 -2.51715e+01 -3.25479e+01
       O -1.33765e+01 -2.60852e+01 -1.29663e+01
       H -1.32249e+01 -2.69442e+01 -1.26348e+01
       H -1.43340e+01 -2.60896e+01 -1.28785e+01
       O -1.56620e+01 -4.13997e+00 -9.05657e+00
       H -1.46853e+01 -3.94016e+00 -9.05717e+00
       H -1.57855e+01 -4.44216e+00 -8.13539e+00
       O -1.94065e+01 -2.29808e+01 -3.53570e+01
       H -1.91725e+01 -2.32045e+01 -3.44382e+01
       H -2.02059e+01 -2.34387e+01 -3.55037e+01
       O -3.51927e+01 -2.34254e+01 -1.70018e+01
       H -3.45782e+01 -2.32684e+01 -1.62594e+01
       H -3.51346e+01 -2.44453e+01 -1.71162e+01
       O -2.95086e+01 -1.83279e+01  8.66175e+00
       H -2.92669e+01 -1.77626e+01  9.39416e+00
       H -2.94666e+01 -1.92092e+01  9.12744e+00
       O -1.10764e+01 -1.52081e+01 -4.43205e+00
       H -1.05104e+01 -1.48921e+01 -5.14157e+00
       H -1.16897e+01 -1.44415e+01 -4.25999e+00
       O -1.28928e+01 -2.03964e+01 -9.50625e+00
       H -1.30520e+01 -2.03041e+01 -8.52253e+00
       H -1.28902e+01 -1.94260e+01 -9.68558e+00
       O  6.34521e+00 -5.61545e+00  1.88900e+01
       H  5.84596e+00 -5.29996e+00  1.96788e+01
       H  6.18408e+00 -4.97055e+00  1.81632e+01
       O -8.99736e+00  3.64441e+00 -1.37101e+01
       H -8.94397e+00  2.80813e+00 -1.41656e+01
       H -8.20698e+00  4.06538e+00 -1.41630e+01
       O -4.99946e+00  7.21444e+00 -2.70035e+00
       H -4.83830e+00  6.91902e+00 -1.79258e+00
       H -5.91511e+00  6.91746e+00 -2.92643e+00
       O -1.62033e+01 -1.32756e+01 -2.82590e+01
       H -1.54138e+01 -1.28700e+01 -2.78788e+01
       H -1.61352e+01 -1.41375e+01 -2.78338e+01
       O -4.86411e+00 -1.07604e+01 -2.54239e+01
       H -4.70073e+00 -1.02616e+01 -2.62170e+01
       H -3.99802e+00 -1.06750e+01 -2.50277e+01
       O -1.40839e+01 -1.05259e+01 -3.04359e+01
       H -1.35446e+01 -1.00482e+01 -3.11641e+01
       H -1.33427e+01 -1.07062e+01 -2.98446e+01
       O -1.63987e+01 -2.85791e+01 -2.23875e+01
       H -1.65052e+01 -2.88534e+01 -2.33015e+01
       H -1.57315e+01 -2.79443e+01 -2.24821e+01
       O -6.47426e+00 -3.61844e+00 -6.53565e+00
       H -5.97748e+00 -2.96225e+00 -6.04233e+00
       H -6.97943e+00 -4.07443e+00 -5.85645e+00
       O -1.59190e+01 -2.29507e+01 -4.23192e-01
       H -1.60423e+01 -2.26920e+01 -1.32680e+00
       H -1.49222e+01 -2.28684e+01 -3.67821e-01
       O -3.02757e+00 -4.70329e+00 -1.16541e+01
       H -3.28266e+00 -4.32028e+00 -1.25110e+01
       H -3.57375e+00 -5.52058e+00 -1.17348e+01
       O -6.76136e+00 -8.10463e+00 -1.07877e+01
       H -7.61468e+00 -8.00459e+00 -1.12244e+01
       H -6.88227e+00 -8.67534e+00 -9.97552e+00
       O  1.14886e+01  8.01281e+00 -3.20625e+01
       H  1.13640e+01  7.11109e+00 -3.17232e+01
       H  1.05974e+01  8.41275e+00 -3.22301e+01
       O -2.47640e+01 -1.84275e+01 -9.24735e+00
       H -2.45625e+01 -1.93552e+01 -9.21932e+00
       H -2.44338e+01 -1.81757e+01 -1.01138e+01
       O -2.12143e+01 -2.68617e+01 -1.13761e+01
       H -2.19734e+01 -2.74638e+01 -1.14762e+01
       H -2.17163e+01 -2.60090e+01 -1.12996e+01
       O -8.51851e+00 -1.83618e+01 -5.34551e+00
       H -9.00528e+00 -1.89163e+01 -4.71056e+00
       H -8.56737e+00 -1.89045e+01 -6.14859e+00
       O -9.22909e+00 -1.28677e+01 -2.12864e+01
       H -8.48816e+00 -1.33360e+01 -2.17903e+01
       H -9.81190e+00 -1.36625e+01 -2.12394e+01
       O -1.56618e+01 -3.36127e+00 -1.69250e+01
       H -1.49880e+01 -4.09310e+00 -1.66608e+01
       H -1.57269e+01 -3.07440e+00 -1.60276e+01
       O -1.58882e+01 -2.12181e+01 -2.12703e+01
       H -1.63905e+01 -2.21047e+01 -2.14874e+01
       H -1.50136e+01 -2.15180e+01 -2.14026e+01
       O -1.28673e+01 -1.35307e+01 -1.35917e+01
       H -1.35276e+01 -1.42633e+01 -1.39438e+01
       H -1.28687e+01 -1.29720e+01 -1.43967e+01
       O -1.49002e+01 -3.49940e+01 -3.99332e+01
       H -1.44878e+01 -3.56904e+01 -3.94017e+01
       H -1.58737e+01 -3.51235e+01 -3.98273e+01
       O -2.17514e+01 -1.07957e+01 -9.97042e+00
       H -2.16186e+01 -9.91355e+00 -9.50330e+00
       H -2.20450e+01 -1.14388e+01 -9.32801e+00
       O -1.06264e+01 -3.09506e+01 -2.42796e+01
       H -1.12441e+01 -3.02580e+01 -2.42702e+01
       H -1.09147e+01 -3.13744e+01 -2.50673e+01
       O -1.39909e+01 -2.28621e+01 -1.30398e+01
       H -1.40289e+01 -2.32452e+01 -1.21647e+01
       H -1.46671e+01 -2.33561e+01 -1.35244e+01
       O -2.61654e+01 -2.24090e+01 -2.06429e+01
       H -2.58376e+01 -2.28844e+01 -1.99082e+01
       H -2.64767e+01 -2.31898e+01 -2.12073e+01
       O -1.92765e+01 -1.42644e+01 -9.74280e+00
       H -1.85780e+01 -1.42311e+01 -1.04786e+01
       H -1.87547e+01 -1.38899e+01 -9.05374e+00
       O -7.32765e+00 -3.01462e+01 -3.15063e+01
       H -7.23285e+00 -2.94331e+01 -3.21185e+01
       H -6.53650e+00 -3.01049e+01 -3.09790e+01
       O -2.06891e-01 -1.88478e+01 -2.41984e+01
       H -1.05101e+00 -1.92446e+01 -2.44650e+01
       H -4.79043e-01 -1.83221e+01 -2.34312e+01
       O -1.30175e+01 -1.15898e+01 -1.57871e+01
       H -1.29022e+01 -1.06315e+01 -1.58012e+01
       H -1.39645e+01 -1.17454e+01 -1.59133e+01
       O -2.06705e+01 -2.39771e+00 -1.70619e+01
       H -2.03387e+01 -2.66681e+00 -1.78748e+01
       H -2.15900e+01 -2.75233e+00 -1.71155e+01
       O -1.05465e+01 -3.10820e+00 -2.04101e+01
       H -1.05605e+01 -3.61688e+00 -1.95847e+01
       H -1.09120e+01 -3.70326e+00 -2.10359e+01
       O -5.93270e+00 -3.19632e-01 -3.41431e-01
       H -5.32439e+00 -2.62508e-01  3.41360e-01
       H -5.85476e+00 -1.26571e+00 -7.18455e-01
       O -2.08682e+01 -1.06061e+01 -2.77405e+00
       H -2.10124e+01 -1.15448e+01 -3.01232e+00
       H -2.05991e+01 -1.00637e+01 -3.57807e+00
       O -1.28254e+01 -1.79269e+01 -1.13982e+01
       H -1.19450e+01 -1.82101e+01 -1.12575e+01
       H -1.28704e+01 -1.70626e+01 -1.09899e+01
       O -2.36803e+01 -1.30668e+01 -1.19573e+01
       H -2.28594e+01 -1.32473e+01 -1.14303e+01
       H -2.32662e+01 -1.25000e+01 -1.25909e+01
       O -1.14028e+01 -7.26649e+00 -6.95009e+00
       H -1.05819e+01 -7.71411e+00 -6.52620e+00
       H -1.14002e+01 -7.57709e+00 -7.86310e+00
       O -1.95826e+01 -2.26077e+01 -3.97661e+01
       H -2.02763e+01 -2.21395e+01 -3.93417e+01
       H -1.99585e+01 -2.33711e+01 -4.02508e+01
       O -1.40984e+01 -2.28785e+01 -7.19809e+00
       H -1.37498e+01 -2.31489e+01 -8.02620e+00
       H -1.48978e+01 -2.33943e+01 -7.16300e+00
       O -4.46763e+00 -1.23638e+01 -1.84572e+01
       H -4.89454e+00 -1.27503e+01 -1.76445e+01
       H -3.58347e+00 -1.27860e+01 -1.85417e+01
       O -4.12173e+01 -1.12438e+01  8.91919e+00
       H -4.11085e+01 -1.14596e+01  7.99550e+00
       H -4.14438e+01 -1.21446e+01  9.22673e+00
       O -5.64527e+00 -1.69246e+01 -8.45368e+00
       H -5.63427e+00 -1.68057e+01 -7.49609e+00
       H -5.91843e+00 -1.79060e+01 -8.47054e+00
       O -2.21895e+01 -1.27721e+01  1.45947e+01
       H -2.18301e+01 -1.33421e+01  1.53108e+01
       H -2.23055e+01 -1.19954e+01  1.51145e+01
       O -8.95051e+00 -3.21737e+01 -2.74772e+01
       H -9.91140e+00 -3.22143e+01 -2.73615e+01
       H -8.59429e+00 -3.29690e+01 -2.71739e+01
       O -2.13917e+01 -2.61575e+01 -7.58500e+00
       H -2.09379e+01 -2.55643e+01 -6.90946e+00
       H -2.06444e+01 -2.64436e+01 -8.19253e+00
       O -1.20989e+01 -1.43945e+01  9.99779e+00
       H -1.17342e+01 -1.41043e+01  9.12428e+00
       H -1.28932e+01 -1.38013e+01  9.96836e+00
       O -1.33942e+01 -8.71652e+00 -5.96830e+00
       H -1.40252e+01 -8.93609e+00 -6.69954e+00
       H -1.27121e+01 -8.18801e+00 -6.42241e+00
       O -3.56595e+01 -1.76368e+01 -5.55765e+00
       H -3.51543e+01 -1.82656e+01 -6.03678e+00
       H -3.50232e+01 -1.70579e+01 -5.12545e+00
       O -1.45390e+01 -2.67630e+01 -2.33044e+01
       H -1.38436e+01 -2.68465e+01 -2.39548e+01
       H -1.42977e+01 -2.59172e+01 -2.28840e+01
       O -1.18579e+01 -9.24105e+00  1.74544e-01
       H -1.25587e+01 -9.77304e+00  4.68244e-01
       H -1.22817e+01 -8.26599e+00  8.51125e-02
       O -1.34613e+01 -2.59598e+01 -4.24868e+00
       H -1.25285e+01 -2.56639e+01 -4.27243e+00
       H -1.34976e+01 -2.61326e+01 -5.25299e+00
       O -1.29144e+01 -2.92850e+01 -6.95299e+00
       H -1.22024e+01 -2.86373e+01 -6.89489e+00
       H -1.25630e+01 -2.98961e+01 -7.71809e+00
       O -4.72658e+00 -8.38910e+00  2.36312e+00
       H -5.24218e+00 -9.21437e+00  2.34815e+00
       H -4.09497e+00 -8.66975e+00  3.03705e+00
       O -2.07751e+01 -2.61760e+01 -2.55575e+00
       H -2.09613e+01 -2.56975e+01 -3.35676e+00
       H -2.15756e+01 -2.60263e+01 -1.99372e+00
       O -5.26293e-01 -2.09464e+00  3.12607e+00
       H -1.38036e+00 -1.81558e+00  3.47880e+00
       H  3.33104e-02 -1.41960e+00  3.46921e+00
       O -1.96122e+01 -2.77346e+01 -9.28831e+00
       H -2.00360e+01 -2.75275e+01 -1.01170e+01
       H -1.96759e+01 -2.87026e+01 -9.20736e+00
       O -1.87152e+01 -2.47442e+01 -9.20973e+00
       H -1.89305e+01 -2.49167e+01 -8.28127e+00
       H -1.82495e+01 -2.55680e+01 -9.49540e+00
       O -1.73518e+01 -1.87583e+01 -1.78076e+00
       H -1.77842e+01 -1.79957e+01 -1.28506e+00
       H -1.76930e+01 -1.94949e+01 -1.19724e+00
       O -5.25381e+00 -7.46390e+00 -5.50431e+00
       H -5.63583e+00 -8.10278e+00 -4.85166e+00
       H -5.89301e+00 -7.47993e+00 -6.23574e+00
       O -4.86009e+00 -1.59942e+01 -1.10599e+01
       H -5.67307e+00 -1.63260e+01 -1.13756e+01
       H -4.63505e+00 -1.67775e+01 -1.05646e+01
       O -1.97444e+01 -2.00941e+01 -1.46740e+01
       H -1.90761e+01 -2.07631e+01 -1.44683e+01
       H -1.97107e+01 -2.01431e+01 -1.56647e+01
       O -9.21086e-01 -1.14415e+01 -9.14360e+00
       H -8.15852e-01 -1.13461e+01 -1.00931e+01
       H -4.10815e-01 -1.07248e+01 -8.87747e+00
       O -9.13357e+00 -2.58005e+01 -1.57634e+01
       H -9.94991e+00 -2.59282e+01 -1.61875e+01
       H -8.95683e+00 -2.66141e+01 -1.52406e+01
       O -4.81060e+00 -9.31358e+00 -2.79372e+01
       H -5.79074e+00 -9.39293e+00 -2.79655e+01
       H -4.66850e+00 -9.03142e+00 -2.88288e+01
       O -1.55969e+01 -1.15124e+00 -3.49537e+00
       H -1.58271e+01 -2.01506e+00 -3.74732e+00
       H -1.61759e+01 -1.13669e+00 -2.66579e+00
       O -5.83233e+00 -1.88527e-02 -1.11831e+01
       H -4.91475e+00 -3.69981e-01 -1.10763e+01
       H -6.40843e+00 -7.81344e-01 -1.10443e+01
       O -1.55565e+01  3.33633e+00 -9.02918e+00
       H -1.54347e+01  3.45127e+00 -8.05772e+00
       H -1.61347e+01  2.51209e+00 -9.00197e+00
       O -8.20904e+00 -2.83543e+00 -1.58637e+01
       H -7.95979e+00 -2.37093e+00 -1.50591e+01
       H -7.50607e+00 -3.50554e+00 -1.60196e+01
       O -2.30842e+01 -9.34292e+00 -5.61503e+00
       H -2.21129e+01 -9.38073e+00 -5.46986e+00
       H -2.31787e+01 -8.38406e+00 -5.68817e+00
       O -2.01716e+01 -2.38194e+01  3.96331e+00
       H -2.08732e+01 -2.43765e+01  4.38901e+00
       H -1.93451e+01 -2.42196e+01  4.32173e+00
       O -9.32721e-01  1.19547e+00  1.20096e+00
       H -1.78009e-01  9.01663e-01  1.72289e+00
       H -8.92103e-01  4.55931e-01  5.53655e-01
       O -2.19574e+01 -1.67845e+01 -8.65276e+00
       H -2.23021e+01 -1.60618e+01 -9.17231e+00
       H -2.27272e+01 -1.74266e+01 -8.87899e+00
       O -5.19171e+00 -2.08117e+01 -3.28883e+01
       H -5.02717e+00 -2.10117e+01 -3.19157e+01
       H -4.44560e+00 -2.13632e+01 -3.32103e+01
       O -1.24551e+00 -1.62195e+01 -1.61357e+01
       H -1.91450e+00 -1.56465e+01 -1.65988e+01
       H -1.75468e+00 -1.71097e+01 -1.60766e+01
       O -1.06570e+01 -1.62585e+01  4.69253e+00
       H -1.10954e+01 -1.53911e+01  4.45692e+00
       H -9.83722e+00 -1.62102e+01  4.21551e+00
       O -1.94295e+01 -1.70302e+01 -1.16863e+01
       H -1.88512e+01 -1.63662e+01 -1.20144e+01
       H -1.99121e+01 -1.64746e+01 -1.11627e+01
       O -1.66124e+01 -7.16258e+00 -1.98550e+01
       H -1.60392e+01 -7.26601e+00 -1.89771e+01
       H -1.70147e+01 -6.23265e+00 -1.96451e+01
       O -2.30448e+01 -1.82917e+01 -1.67610e+01
       H -2.22120e+01 -1.78780e+01 -1.63847e+01
       H -2.27304e+01 -1.91988e+01 -1.69311e+01
       O -8.26103e+00 -2.42294e+01 -1.34660e+01
       H -8.49676e+00 -2.44860e+01 -1.42963e+01
       H -9.18027e+00 -2.40070e+01 -1.30988e+01
       O -1.75073e+01  4.42470e+00 -1.21376e+01
       H -1.68175e+01  5.10282e+00 -1.19276e+01
       H -1.71365e+01  3.71728e+00 -1.15472e+01
       O -2.09726e+00 -2.11082e+01 -1.22937e+01
       H -1.27452e+00 -2.05723e+01 -1.23008e+01
       H -2.71851e+00 -2.04705e+01 -1.26261e+01
       O -6.28586e+00 -3.19865e+01 -5.75060e+00
       H -5.62780e+00 -3.18587e+01 -6.36892e+00
       H -6.29538e+00 -3.29674e+01 -5.63826e+00
       O -2.06695e+01 -1.50201e+01  3.59351e+00
       H -2.05635e+01 -1.43219e+01  4.23054e+00
       H -1.97795e+01 -1.54027e+01  3.59824e+00
       O -1.13366e+01 -2.03139e+01 -6.17752e+00
       H -1.17420e+01 -1.94943e+01 -6.53808e+00
       H -1.05508e+01 -2.03720e+01 -6.73359e+00
       O -4.71106e+00 -1.77310e+01 -2.28160e+01
       H -5.05360e+00 -1.84174e+01 -2.22245e+01
       H -4.57017e+00 -1.70272e+01 -2.21351e+01
       O -3.20262e+01 -2.82204e+01 -2.41910e+01
       H -3.20685e+01 -2.91673e+01 -2.43034e+01
       H -3.28753e+01 -2.80611e+01 -2.36576e+01
       O -3.21520e+01 -1.91215e+01 -3.76439e+00
       H -3.18613e+01 -1.90890e+01 -4.71289e+00
       H -3.11802e+01 -1.92631e+01 -3.41930e+00
       O -6.30468e-01 -9.20069e+00  4.08067e-01
       H -1.54942e+00 -9.41537e+00  3.18291e-02
       H -5.43647e-01 -9.84352e+00  1.14990e+00
       O -1.19484e+01 -2.04008e+01 -4.03192e+01
       H -1.23315e+01 -2.01419e+01 -4.11727e+01
       H -1.21216e+01 -2.13225e+01 -4.03767e+01
       O -1.94375e+01 -2.47446e+01 -2.74517e+01
       H -1.91641e+01 -2.39639e+01 -2.69781e+01
       H -1.94640e+01 -2.53564e+01 -2.67058e+01
       O -2.32024e+00 -9.39161e+00  3.43619e+00
       H -2.47040e+00 -9.60617e+00  4.32345e+00
       H -1.64865e+00 -8.66838e+00  3.57509e+00
       O -3.80302e+01 -9.46457e+00 -5.17766e+00
       H -3.75632e+01 -1.03018e+01 -5.21355e+00
       H -3.80603e+01 -9.27370e+00 -4.27122e+00
       O -2.45881e+01 -1.11745e+01 -6.68918e+00
       H -2.48399e+01 -1.14208e+01 -5.77687e+00
       H -2.39908e+01 -1.04146e+01 -6.43643e+00
       O -2.35808e+01  2.14654e+00 -1.42284e+01
       H -2.35243e+01  1.70505e+00 -1.50789e+01
       H -2.43440e+01  1.74259e+00 -1.37875e+01
       O -1.76801e+00 -5.45271e+00 -1.15385e+00
       H -8.81350e-01 -5.91198e+00 -1.06176e+00
       H -1.68510e+00 -4.88176e+00 -3.56639e-01
       O -3.67201e+00  2.49200e-01  1.29544e+00
       H -2.78377e+00  5.92558e-01  9.95091e-01
       H -3.50262e+00 -6.40436e-01  1.57562e+00
       O -1.16335e+01 -2.14455e+01 -1.19682e+01
       H -1.15870e+01 -2.09019e+01 -1.11702e+01
       H -1.25486e+01 -2.13932e+01 -1.23003e+01
       O -3.57040e+01 -1.87806e+01  1.59281e+00
       H -3.49148e+01 -1.82891e+01  1.82974e+00
       H -3.52891e+01 -1.92976e+01  8.63889e-01
       O -1.66696e+01  2.34555e+00 -2.56452e+01
       H -1.59221e+01  1.79133e+00 -2.53235e+01
       H -1.66073e+01  2.99931e+00 -2.49581e+01
       O -2.21824e+01 -8.02343e+00 -1.62919e+01
       H -2.30336e+01 -8.34016e+00 -1.58636e+01
       H -2.21489e+01 -7.13236e+00 -1.58558e+01
       O -1.34730e+01 -1.38275e+01  6.99262e+00
       H -1.36126e+01 -1.45126e+01  6.28078e+00
       H -1.43760e+01 -1.38084e+01  7.27513e+00
       O -6.53063e+00 -9.45559e+00 -1.64573e+01
       H -7.09217e+00 -1.01830e+01 -1.61161e+01
       H -6.03537e+00 -9.97169e+00 -1.71367e+01
       O -1.59946e+01 -9.01850e+00 -7.12155e+00
       H -1.64297e+01 -8.43903e+00 -6.43112e+00
       H -1.67417e+01 -9.54712e+00 -7.35582e+00
       O -2.09812e+01 -2.35399e+01 -3.84487e+00
       H -2.10151e+01 -2.25545e+01 -3.86892e+00
       H -2.02158e+01 -2.37559e+01 -4.40075e+00
       O -2.48255e+01  4.07060e-01 -1.62490e+01
       H -2.56637e+01 -1.36335e-01 -1.63862e+01
       H -2.43908e+01 -3.24359e-02 -1.54707e+01
       O -2.56586e+01 -2.90689e+01 -9.08141e+00
       H -2.51727e+01 -2.84236e+01 -8.49005e+00
       H -2.63663e+01 -2.93238e+01 -8.45281e+00
       O -1.34226e+01 -2.60133e+01 -9.53248e+00
       H -1.36996e+01 -2.53005e+01 -1.01540e+01
       H -1.25478e+01 -2.61714e+01 -9.98174e+00
       O -4.63917e+00 -2.77767e+01 -2.86097e+01
       H -3.95097e+00 -2.78859e+01 -2.79322e+01
       H -4.19142e+00 -2.73617e+01 -2.93267e+01
       O -1.33793e+01 -1.88979e+01 -1.38082e+01
       H -1.32022e+01 -1.86332e+01 -1.29047e+01
       H -1.43594e+01 -1.87797e+01 -1.38866e+01
       O -1.68619e+01 -2.21481e+01 -3.58416e+01
       H -1.66152e+01 -2.12889e+01 -3.54228e+01