6
# CELL(abcABC): 1000.00000  1000.00000  1000.00000    90.00000    90.00000    90.00000  Step:         460  Bead:       0 positions{angstrom}  cell{angstrom}
       C -7.00635e-01  3.06094e+00 -5.74458e-01
       H -1.19716e+00  3.62556e+00 -1.31280e+00
       H  1.67807e-01  3.64178e+00 -3.09208e-01
       H -3.79160e-01  2.12137e+00 -9.98231e-01
       O -1.54766e+00  2.92202e+00  5.03093e-01
       H -2.18595e+00  2.59549e+00  1.16606e+00
