4
# CELL(abcABC): 1000.00000  1000.00000  1000.00000    90.00000    90.00000    90.00000  Step:         399  Bead:       0 positions{angstrom}  cell{angstrom}
       O -3.17106e+00  1.05888e+00  3.53702e-01
       H -2.74370e+00  1.20341e+00 -5.35372e-01
       H -2.95478e+00  2.33833e-01  7.66043e-01
       H -3.35197e+00  1.82547e+00  8.40522e-01
