4
# CELL(abcABC): 1000.00000  1000.00000  1000.00000    90.00000    90.00000    90.00000  Step:           0  Bead:       0 positions{angstrom}  cell{angstrom}
       O -3.17106e+00  1.05888e+00  3.53702e-01
       H -2.74370e+00  1.20341e+00 -5.35372e-01
       H -2.95478e+00  2.33833e-01  7.66043e-01
       H -3.35197e+00  1.82547e+00  8.40522e-01
4
# CELL(abcABC): 1000.00000  1000.00000  1000.00000    90.00000    90.00000    90.00000  Step:           1  Bead:       0 positions{angstrom}  cell{angstrom}
       O -3.16928e+00  1.05917e+00  3.52947e-01
       H -2.75462e+00  1.19561e+00 -5.29051e-01
       H -2.95442e+00  2.32671e-01  7.67234e-01
       H -3.36960e+00  1.82984e+00  8.44988e-01
4
# CELL(abcABC): 1000.00000  1000.00000  1000.00000    90.00000    90.00000    90.00000  Step:           2  Bead:       0 positions{angstrom}  cell{angstrom}
       O -3.16745e+00  1.05946e+00  3.51893e-01
       H -2.76756e+00  1.18710e+00 -5.19267e-01
       H -2.95219e+00  2.30759e-01  7.68401e-01
       H -3.38807e+00  1.83557e+00  8.50778e-01
4
# CELL(abcABC): 1000.00000  1000.00000  1000.00000    90.00000    90.00000    90.00000  Step:           3  Bead:       0 positions{angstrom}  cell{angstrom}
       O -3.16548e+00  1.05984e+00  3.50646e-01
       H -2.78099e+00  1.17687e+00 -5.06533e-01
       H -2.95012e+00  2.29659e-01  7.70047e-01
       H -3.40797e+00  1.84100e+00  8.56184e-01
4
# CELL(abcABC): 1000.00000  1000.00000  1000.00000    90.00000    90.00000    90.00000  Step:           4  Bead:       0 positions{angstrom}  cell{angstrom}
       O -3.16352e+00  1.06031e+00  3.49580e-01
       H -2.79456e+00  1.16533e+00 -4.96165e-01
       H -2.94745e+00  2.29355e-01  7.70997e-01
       H -3.42820e+00  1.84531e+00  8.61786e-01
4
# CELL(abcABC): 1000.00000  1000.00000  1000.00000    90.00000    90.00000    90.00000  Step:           5  Bead:       0 positions{angstrom}  cell{angstrom}
       O -3.16152e+00  1.06074e+00  3.48865e-01
       H -2.80778e+00  1.15406e+00 -4.89862e-01
       H -2.94560e+00  2.30658e-01  7.72680e-01
       H -3.44855e+00  1.84850e+00  8.65147e-01
4
# CELL(abcABC): 1000.00000  1000.00000  1000.00000    90.00000    90.00000    90.00000  Step:           6  Bead:       0 positions{angstrom}  cell{angstrom}
       O -3.15953e+00  1.06132e+00  3.48669e-01
       H -2.81898e+00  1.14358e+00 -4.90454e-01
       H -2.94464e+00  2.30908e-01  7.73137e-01
       H -3.46984e+00  1.84946e+00  8.68398e-01
4
# CELL(abcABC): 1000.00000  1000.00000  1000.00000    90.00000    90.00000    90.00000  Step:           7  Bead:       0 positions{angstrom}  cell{angstrom}
       O -3.15774e+00  1.06190e+00  3.48849e-01
       H -2.82651e+00  1.13374e+00 -4.96697e-01
       H -2.94418e+00  2.31346e-01  7.74205e-01
       H -3.49116e+00  1.84963e+00  8.70714e-01
4
# CELL(abcABC): 1000.00000  1000.00000  1000.00000    90.00000    90.00000    90.00000  Step:           8  Bead:       0 positions{angstrom}  cell{angstrom}
       O -3.15619e+00  1.06261e+00  3.49648e-01
       H -2.83099e+00  1.12456e+00 -5.10267e-01
       H -2.94307e+00  2.31352e-01  7.74515e-01
       H -3.51239e+00  1.84760e+00  8.71298e-01
4
# CELL(abcABC): 1000.00000  1000.00000  1000.00000    90.00000    90.00000    90.00000  Step:           9  Bead:       0 positions{angstrom}  cell{angstrom}
       O -3.15481e+00  1.06353e+00  3.50776e-01
       H -2.83404e+00  1.11504e+00 -5.27663e-01
       H -2.94126e+00  2.31912e-01  7.75384e-01
       H -3.53316e+00  1.84191e+00  8.69922e-01
4
# CELL(abcABC): 1000.00000  1000.00000  1000.00000    90.00000    90.00000    90.00000  Step:          10  Bead:       0 positions{angstrom}  cell{angstrom}
       O -3.15349e+00  1.06452e+00  3.52332e-01
       H -2.83639e+00  1.10589e+00 -5.48483e-01
       H -2.93964e+00  2.33505e-01  7.75562e-01
       H -3.55333e+00  1.83382e+00  8.65858e-01
4
# CELL(abcABC): 1000.00000  1000.00000  1000.00000    90.00000    90.00000    90.00000  Step:          11  Bead:       0 positions{angstrom}  cell{angstrom}
       O -3.15218e+00  1.06565e+00  3.54157e-01
       H -2.83877e+00  1.09781e+00 -5.70668e-01
       H -2.93961e+00  2.34981e-01  7.75512e-01
       H -3.57169e+00  1.82249e+00  8.59126e-01
4
# CELL(abcABC): 1000.00000  1000.00000  1000.00000    90.00000    90.00000    90.00000  Step:          12  Bead:       0 positions{angstrom}  cell{angstrom}
       O -3.15098e+00  1.06696e+00  3.56004e-01
       H -2.84089e+00  1.08994e+00 -5.90743e-01
       H -2.93999e+00  2.35193e-01  7.74791e-01
       H -3.58830e+00  1.80931e+00  8.50610e-01
4
# CELL(abcABC): 1000.00000  1000.00000  1000.00000    90.00000    90.00000    90.00000  Step:          13  Bead:       0 positions{angstrom}  cell{angstrom}
       O -3.14977e+00  1.06839e+00  3.57624e-01
       H -2.84456e+00  1.08314e+00 -6.06102e-01
       H -2.93943e+00  2.35131e-01  7.74512e-01
       H -3.60437e+00  1.79353e+00  8.40526e-01
4
# CELL(abcABC): 1000.00000  1000.00000  1000.00000    90.00000    90.00000    90.00000  Step:          14  Bead:       0 positions{angstrom}  cell{angstrom}
       O -3.14852e+00  1.06984e+00  3.58883e-01
       H -2.84884e+00  1.07669e+00 -6.15170e-01
       H -2.93876e+00  2.35590e-01  7.74691e-01
       H -3.62065e+00  1.77641e+00  8.29439e-01
4
# CELL(abcABC): 1000.00000  1000.00000  1000.00000    90.00000    90.00000    90.00000  Step:          15  Bead:       0 positions{angstrom}  cell{angstrom}
       O -3.14706e+00  1.07118e+00  3.59519e-01
       H -2.85726e+00  1.07055e+00 -6.15452e-01
       H -2.93913e+00  2.36577e-01  7.75599e-01
       H -3.63505e+00  1.76041e+00  8.18717e-01
4
# CELL(abcABC): 1000.00000  1000.00000  1000.00000    90.00000    90.00000    90.00000  Step:          16  Bead:       0 positions{angstrom}  cell{angstrom}
       O -3.14547e+00  1.07236e+00  3.59723e-01
       H -2.86678e+00  1.06500e+00 -6.09552e-01
       H -2.94016e+00  2.38733e-01  7.77143e-01
       H -3.64966e+00  1.74494e+00  8.08032e-01
4
# CELL(abcABC): 1000.00000  1000.00000  1000.00000    90.00000    90.00000    90.00000  Step:          17  Bead:       0 positions{angstrom}  cell{angstrom}
       O -3.14361e+00  1.07343e+00  3.59509e-01
       H -2.87750e+00  1.06097e+00 -5.97632e-01
       H -2.94274e+00  2.41650e-01  7.78344e-01
       H -3.66586e+00  1.72912e+00  7.98303e-01
4
# CELL(abcABC): 1000.00000  1000.00000  1000.00000    90.00000    90.00000    90.00000  Step:          18  Bead:       0 positions{angstrom}  cell{angstrom}
       O -3.14153e+00  1.07427e+00  3.58951e-01
       H -2.89078e+00  1.05890e+00 -5.81170e-01
       H -2.94471e+00  2.44477e-01  7.80140e-01
       H -3.68363e+00  1.71504e+00  7.88903e-01
4
# CELL(abcABC): 1000.00000  1000.00000  1000.00000    90.00000    90.00000    90.00000  Step:          19  Bead:       0 positions{angstrom}  cell{angstrom}
       O -3.13939e+00  1.07502e+00  3.58170e-01
       H -2.90454e+00  1.05783e+00 -5.62109e-01
       H -2.94785e+00  2.46461e-01  7.81941e-01
       H -3.70076e+00  1.70229e+00  7.80443e-01
4
# CELL(abcABC): 1000.00000  1000.00000  1000.00000    90.00000    90.00000    90.00000  Step:          20  Bead:       0 positions{angstrom}  cell{angstrom}
       O -3.13714e+00  1.07568e+00  3.57434e-01
       H -2.91833e+00  1.05826e+00 -5.45271e-01
       H -2.95226e+00  2.48130e-01  7.84605e-01
       H -3.71834e+00  1.68963e+00  7.72615e-01
4
# CELL(abcABC): 1000.00000  1000.00000  1000.00000    90.00000    90.00000    90.00000  Step:          21  Bead:       0 positions{angstrom}  cell{angstrom}
       O -3.13492e+00  1.07624e+00  3.56974e-01
       H -2.93187e+00  1.05909e+00 -5.33579e-01
       H -2.95524e+00  2.49834e-01  7.88742e-01
       H -3.73703e+00  1.67820e+00  7.64090e-01
4
# CELL(abcABC): 1000.00000  1000.00000  1000.00000    90.00000    90.00000    90.00000  Step:          22  Bead:       0 positions{angstrom}  cell{angstrom}
       O -3.13279e+00  1.07664e+00  3.57003e-01
       H -2.94530e+00  1.05977e+00 -5.27520e-01
       H -2.95607e+00  2.51253e-01  7.91629e-01
       H -3.75659e+00  1.66970e+00  7.54682e-01
4
# CELL(abcABC): 1000.00000  1000.00000  1000.00000    90.00000    90.00000    90.00000  Step:          23  Bead:       0 positions{angstrom}  cell{angstrom}
       O -3.13077e+00  1.07699e+00  3.57743e-01
       H -2.95702e+00  1.06155e+00 -5.30274e-01
       H -2.95574e+00  2.52587e-01  7.95137e-01
       H -3.77718e+00  1.66112e+00  7.42184e-01
4
# CELL(abcABC): 1000.00000  1000.00000  1000.00000    90.00000    90.00000    90.00000  Step:          24  Bead:       0 positions{angstrom}  cell{angstrom}
       O -3.12889e+00  1.07722e+00  3.59019e-01
       H -2.96666e+00  1.06274e+00 -5.41208e-01
       H -2.95460e+00  2.54385e-01  7.99002e-01
       H -3.79856e+00  1.65455e+00  7.29004e-01
4
# CELL(abcABC): 1000.00000  1000.00000  1000.00000    90.00000    90.00000    90.00000  Step:          25  Bead:       0 positions{angstrom}  cell{angstrom}
       O -3.12709e+00  1.07754e+00  3.60622e-01
       H -2.97516e+00  1.06320e+00 -5.57591e-01
       H -2.95326e+00  2.54836e-01  8.03101e-01
       H -3.82004e+00  1.64840e+00  7.15844e-01
4
# CELL(abcABC): 1000.00000  1000.00000  1000.00000    90.00000    90.00000    90.00000  Step:          26  Bead:       0 positions{angstrom}  cell{angstrom}
       O -3.12539e+00  1.07801e+00  3.62451e-01
       H -2.98286e+00  1.06313e+00 -5.78195e-01
       H -2.95104e+00  2.54328e-01  8.06938e-01
       H -3.84149e+00  1.64165e+00  7.03581e-01
4
# CELL(abcABC): 1000.00000  1000.00000  1000.00000    90.00000    90.00000    90.00000  Step:          27  Bead:       0 positions{angstrom}  cell{angstrom}
       O -3.12392e+00  1.07852e+00  3.64368e-01
       H -2.99030e+00  1.06403e+00 -5.99875e-01
       H -2.94821e+00  2.52443e-01  8.10222e-01
       H -3.86020e+00  1.63442e+00  6.91537e-01
4
# CELL(abcABC): 1000.00000  1000.00000  1000.00000    90.00000    90.00000    90.00000  Step:          28  Bead:       0 positions{angstrom}  cell{angstrom}
       O -3.12253e+00  1.07912e+00  3.66114e-01
       H -2.99860e+00  1.06332e+00 -6.19264e-01
       H -2.94429e+00  2.50423e-01  8.13331e-01
       H -3.87787e+00  1.62766e+00  6.80108e-01
4
# CELL(abcABC): 1000.00000  1000.00000  1000.00000    90.00000    90.00000    90.00000  Step:          29  Bead:       0 positions{angstrom}  cell{angstrom}
       O -3.12132e+00  1.07975e+00  3.67634e-01
       H -3.00612e+00  1.06279e+00 -6.35449e-01
       H -2.94089e+00  2.48448e-01  8.15798e-01
       H -3.89296e+00  1.62024e+00  6.69688e-01
4
# CELL(abcABC): 1000.00000  1000.00000  1000.00000    90.00000    90.00000    90.00000  Step:          30  Bead:       0 positions{angstrom}  cell{angstrom}
       O -3.12028e+00  1.08032e+00  3.68783e-01
       H -3.01316e+00  1.06306e+00 -6.44655e-01
       H -2.93745e+00  2.46858e-01  8.17857e-01
       H -3.90585e+00  1.61254e+00  6.58611e-01
4
# CELL(abcABC): 1000.00000  1000.00000  1000.00000    90.00000    90.00000    90.00000  Step:          31  Bead:       0 positions{angstrom}  cell{angstrom}
       O -3.11956e+00  1.08080e+00  3.69604e-01
       H -3.01846e+00  1.06323e+00 -6.46624e-01
       H -2.93322e+00  2.47137e-01  8.18294e-01
       H -3.91621e+00  1.60439e+00  6.47110e-01
4
# CELL(abcABC): 1000.00000  1000.00000  1000.00000    90.00000    90.00000    90.00000  Step:          32  Bead:       0 positions{angstrom}  cell{angstrom}
       O -3.11902e+00  1.08140e+00  3.69842e-01
       H -3.02436e+00  1.06121e+00 -6.40768e-01
       H -2.92836e+00  2.49548e-01  8.18930e-01
       H -3.92385e+00  1.59444e+00  6.36833e-01
4
# CELL(abcABC): 1000.00000  1000.00000  1000.00000    90.00000    90.00000    90.00000  Step:          33  Bead:       0 positions{angstrom}  cell{angstrom}
       O -3.11866e+00  1.08216e+00  3.69592e-01
       H -3.03035e+00  1.05809e+00 -6.27037e-01
       H -2.92306e+00  2.51829e-01  8.19109e-01
       H -3.92886e+00  1.58322e+00  6.26894e-01
4
# CELL(abcABC): 1000.00000  1000.00000  1000.00000    90.00000    90.00000    90.00000  Step:          34  Bead:       0 positions{angstrom}  cell{angstrom}
       O -3.11836e+00  1.08299e+00  3.69138e-01
       H -3.03524e+00  1.05427e+00 -6.08241e-01
       H -2.91956e+00  2.54493e-01  8.18728e-01
       H -3.93215e+00  1.57131e+00  6.15693e-01
4
# CELL(abcABC): 1000.00000  1000.00000  1000.00000    90.00000    90.00000    90.00000  Step:          35  Bead:       0 positions{angstrom}  cell{angstrom}
       O -3.11829e+00  1.08380e+00  3.68507e-01
       H -3.03752e+00  1.04978e+00 -5.87125e-01
       H -2.91729e+00  2.58918e-01  8.18223e-01
       H -3.93329e+00  1.55846e+00  6.05097e-01
4
# CELL(abcABC): 1000.00000  1000.00000  1000.00000    90.00000    90.00000    90.00000  Step:          36  Bead:       0 positions{angstrom}  cell{angstrom}
       O -3.11843e+00  1.08455e+00  3.67868e-01
       H -3.03838e+00  1.04464e+00 -5.66218e-01
       H -2.91486e+00  2.65257e-01  8.16276e-01
       H -3.93270e+00  1.54536e+00  5.96274e-01
4
# CELL(abcABC): 1000.00000  1000.00000  1000.00000    90.00000    90.00000    90.00000  Step:          37  Bead:       0 positions{angstrom}  cell{angstrom}
       O -3.11879e+00  1.08539e+00  3.67251e-01
       H -3.03712e+00  1.03958e+00 -5.46325e-01
       H -2.91175e+00  2.71138e-01  8.13578e-01
       H -3.93130e+00  1.53127e+00  5.88879e-01
4
# CELL(abcABC): 1000.00000  1000.00000  1000.00000    90.00000    90.00000    90.00000  Step:          38  Bead:       0 positions{angstrom}  cell{angstrom}
       O -3.11915e+00  1.08626e+00  3.67097e-01
       H -3.03508e+00  1.03350e+00 -5.33673e-01
       H -2.90818e+00  2.75571e-01  8.10694e-01
       H -3.93121e+00  1.51909e+00  5.81545e-01
4
# CELL(abcABC): 1000.00000  1000.00000  1000.00000    90.00000    90.00000    90.00000  Step:          39  Bead:       0 positions{angstrom}  cell{angstrom}
       O -3.11981e+00  1.08729e+00  3.67242e-01
       H -3.03032e+00  1.02600e+00 -5.28762e-01
       H -2.90363e+00  2.78098e-01  8.09147e-01
       H -3.93006e+00  1.50762e+00  5.75875e-01
4
# CELL(abcABC): 1000.00000  1000.00000  1000.00000    90.00000    90.00000    90.00000  Step:          40  Bead:       0 positions{angstrom}  cell{angstrom}
       O -3.12061e+00  1.08830e+00  3.67618e-01
       H -3.02346e+00  1.01787e+00 -5.31807e-01
       H -2.89815e+00  2.79935e-01  8.09899e-01
       H -3.92967e+00  1.49787e+00  5.72210e-01
4
# CELL(abcABC): 1000.00000  1000.00000  1000.00000    90.00000    90.00000    90.00000  Step:          41  Bead:       0 positions{angstrom}  cell{angstrom}
       O -3.12146e+00  1.08926e+00  3.68274e-01
       H -3.01498e+00  1.00987e+00 -5.43224e-01
       H -2.89139e+00  2.81457e-01  8.11754e-01
       H -3.93141e+00  1.48909e+00  5.71350e-01
4
# CELL(abcABC): 1000.00000  1000.00000  1000.00000    90.00000    90.00000    90.00000  Step:          42  Bead:       0 positions{angstrom}  cell{angstrom}
       O -3.12242e+00  1.09029e+00  3.69155e-01
       H -3.00344e+00  9.99705e-01 -5.60428e-01
       H -2.88372e+00  2.82580e-01  8.14788e-01
       H -3.93529e+00  1.48181e+00  5.71544e-01
4
# CELL(abcABC): 1000.00000  1000.00000  1000.00000    90.00000    90.00000    90.00000  Step:          43  Bead:       0 positions{angstrom}  cell{angstrom}
       O -3.12333e+00  1.09115e+00  3.70025e-01
       H -2.99106e+00  9.90450e-01 -5.80196e-01
       H -2.87539e+00  2.84971e-01  8.18818e-01
       H -3.94162e+00  1.47512e+00  5.73468e-01
4
# CELL(abcABC): 1000.00000  1000.00000  1000.00000    90.00000    90.00000    90.00000  Step:          44  Bead:       0 positions{angstrom}  cell{angstrom}
       O -3.12413e+00  1.09189e+00  3.70689e-01
       H -2.97787e+00  9.81032e-01 -5.99644e-01
       H -2.86656e+00  2.87198e-01  8.23074e-01
       H -3.95092e+00  1.47053e+00  5.78122e-01
4
# CELL(abcABC): 1000.00000  1000.00000  1000.00000    90.00000    90.00000    90.00000  Step:          45  Bead:       0 positions{angstrom}  cell{angstrom}
       O -3.12475e+00  1.09248e+00  3.71067e-01
       H -2.96516e+00  9.72661e-01 -6.16191e-01
       H -2.85673e+00  2.89380e-01  8.27095e-01
       H -3.96366e+00  1.46727e+00  5.84643e-01
4
# CELL(abcABC): 1000.00000  1000.00000  1000.00000    90.00000    90.00000    90.00000  Step:          46  Bead:       0 positions{angstrom}  cell{angstrom}
       O -3.12534e+00  1.09291e+00  3.71047e-01
       H -2.95290e+00  9.66170e-01 -6.27702e-01
       H -2.84685e+00  2.91636e-01  8.31043e-01
       H -3.97647e+00  1.46469e+00  5.92526e-01
4
# CELL(abcABC): 1000.00000  1000.00000  1000.00000    90.00000    90.00000    90.00000  Step:          47  Bead:       0 positions{angstrom}  cell{angstrom}
       O -3.12585e+00  1.09303e+00  3.70682e-01
       H -2.94130e+00  9.60933e-01 -6.32320e-01
       H -2.83682e+00  2.95372e-01  8.34317e-01
       H -3.98992e+00  1.46436e+00  5.99660e-01
4
# CELL(abcABC): 1000.00000  1000.00000  1000.00000    90.00000    90.00000    90.00000  Step:          48  Bead:       0 positions{angstrom}  cell{angstrom}
       O -3.12634e+00  1.09303e+00  3.69839e-01
       H -2.93013e+00  9.56340e-01 -6.29528e-01
       H -2.82690e+00  3.01143e-01  8.36917e-01
       H -4.00328e+00  1.46322e+00  6.07654e-01
4
# CELL(abcABC): 1000.00000  1000.00000  1000.00000    90.00000    90.00000    90.00000  Step:          49  Bead:       0 positions{angstrom}  cell{angstrom}
       O -3.12690e+00  1.09283e+00  3.68447e-01
       H -2.91996e+00  9.53017e-01 -6.19224e-01
       H -2.81595e+00  3.08077e-01  8.39687e-01
       H -4.01553e+00  1.46265e+00  6.16682e-01
4
# CELL(abcABC): 1000.00000  1000.00000  1000.00000    90.00000    90.00000    90.00000  Step:          50  Bead:       0 positions{angstrom}  cell{angstrom}
       O -3.12735e+00  1.09254e+00  3.66792e-01
       H -2.91126e+00  9.51538e-01 -6.03128e-01
       H -2.80697e+00  3.15714e-01  8.42599e-01
       H -4.02598e+00  1.46116e+00  6.23947e-01
4
# CELL(abcABC): 1000.00000  1000.00000  1000.00000    90.00000    90.00000    90.00000  Step:          51  Bead:       0 positions{angstrom}  cell{angstrom}
       O -3.12792e+00  1.09209e+00  3.64898e-01
       H -2.90402e+00  9.51265e-01 -5.82869e-01
       H -2.79861e+00  3.24990e-01  8.45468e-01
       H -4.03260e+00  1.45926e+00  6.30880e-01
4
# CELL(abcABC): 1000.00000  1000.00000  1000.00000    90.00000    90.00000    90.00000  Step:          52  Bead:       0 positions{angstrom}  cell{angstrom}
       O -3.12860e+00  1.09163e+00  3.63003e-01
       H -2.89807e+00  9.52193e-01 -5.60098e-01
       H -2.79084e+00  3.34816e-01  8.47431e-01
       H -4.03550e+00  1.45582e+00  6.36215e-01
4
# CELL(abcABC): 1000.00000  1000.00000  1000.00000    90.00000    90.00000    90.00000  Step:          53  Bead:       0 positions{angstrom}  cell{angstrom}
       O -3.12948e+00  1.09108e+00  3.61133e-01
       H -2.89204e+00  9.54789e-01 -5.38437e-01
       H -2.78363e+00  3.46892e-01  8.50481e-01
       H -4.03487e+00  1.44997e+00  6.41191e-01
4
# CELL(abcABC): 1000.00000  1000.00000  1000.00000    90.00000    90.00000    90.00000  Step:          54  Bead:       0 positions{angstrom}  cell{angstrom}
       O -3.13054e+00  1.09059e+00  3.59225e-01
       H -2.88602e+00  9.57312e-01 -5.18793e-01
       H -2.77696e+00  3.60103e-01  8.55090e-01
       H -4.03071e+00  1.44197e+00  6.47228e-01
4
# CELL(abcABC): 1000.00000  1000.00000  1000.00000    90.00000    90.00000    90.00000  Step:          55  Bead:       0 positions{angstrom}  cell{angstrom}
       O -3.13189e+00  1.09014e+00  3.57671e-01
       H -2.87986e+00  9.60438e-01 -5.04408e-01
       H -2.77009e+00  3.73432e-01  8.61487e-01
       H -4.02224e+00  1.43257e+00  6.51105e-01
4
# CELL(abcABC): 1000.00000  1000.00000  1000.00000    90.00000    90.00000    90.00000  Step:          56  Bead:       0 positions{angstrom}  cell{angstrom}
       O -3.13358e+00  1.08971e+00  3.56631e-01
       H -2.87018e+00  9.64001e-01 -4.97724e-01
       H -2.76314e+00  3.86196e-01  8.68125e-01
       H -4.01211e+00  1.42308e+00  6.54305e-01
4
# CELL(abcABC): 1000.00000  1000.00000  1000.00000    90.00000    90.00000    90.00000  Step:          57  Bead:       0 positions{angstrom}  cell{angstrom}
       O -3.13550e+00  1.08929e+00  3.56087e-01
       H -2.85726e+00  9.68259e-01 -4.99573e-01
       H -2.75686e+00  3.97940e-01  8.77251e-01
       H -4.00081e+00  1.41386e+00  6.55662e-01
4
# CELL(abcABC): 1000.00000  1000.00000  1000.00000    90.00000    90.00000    90.00000  Step:          58  Bead:       0 positions{angstrom}  cell{angstrom}
       O -3.13767e+00  1.08892e+00  3.56021e-01
       H -2.84174e+00  9.72031e-01 -5.09600e-01
       H -2.74972e+00  4.09040e-01  8.88506e-01
       H -3.98895e+00  1.40487e+00  6.55481e-01
4
# CELL(abcABC): 1000.00000  1000.00000  1000.00000    90.00000    90.00000    90.00000  Step:          59  Bead:       0 positions{angstrom}  cell{angstrom}
       O -3.13997e+00  1.08845e+00  3.56156e-01
       H -2.82446e+00  9.76478e-01 -5.25003e-01
       H -2.74177e+00  4.20154e-01  9.02665e-01
       H -3.97775e+00  1.39663e+00  6.54573e-01
4
# CELL(abcABC): 1000.00000  1000.00000  1000.00000    90.00000    90.00000    90.00000  Step:          60  Bead:       0 positions{angstrom}  cell{angstrom}
       O -3.14223e+00  1.08793e+00  3.56468e-01
       H -2.80830e+00  9.81433e-01 -5.42640e-01
       H -2.73264e+00  4.30518e-01  9.16155e-01
       H -3.96719e+00  1.38968e+00  6.53769e-01
4
# CELL(abcABC): 1000.00000  1000.00000  1000.00000    90.00000    90.00000    90.00000  Step:          61  Bead:       0 positions{angstrom}  cell{angstrom}
       O -3.14435e+00  1.08726e+00  3.56763e-01
       H -2.79235e+00  9.86987e-01 -5.59893e-01
       H -2.72204e+00  4.40875e-01  9.28752e-01
       H -3.95996e+00  1.38437e+00  6.53738e-01
4
# CELL(abcABC): 1000.00000  1000.00000  1000.00000    90.00000    90.00000    90.00000  Step:          62  Bead:       0 positions{angstrom}  cell{angstrom}
       O -3.14605e+00  1.08644e+00  3.57007e-01
       H -2.77917e+00  9.93004e-01 -5.74499e-01
       H -2.71268e+00  4.51315e-01  9.40698e-01
       H -3.95562e+00  1.38086e+00  6.52532e-01
4
# CELL(abcABC): 1000.00000  1000.00000  1000.00000    90.00000    90.00000    90.00000  Step:          63  Bead:       0 positions{angstrom}  cell{angstrom}
       O -3.14722e+00  1.08526e+00  3.56817e-01
       H -2.76834e+00  1.00137e+00 -5.83768e-01
       H -2.70399e+00  4.61806e-01  9.51856e-01
       H -3.95658e+00  1.38087e+00  6.53666e-01
4
# CELL(abcABC): 1000.00000  1000.00000  1000.00000    90.00000    90.00000    90.00000  Step:          64  Bead:       0 positions{angstrom}  cell{angstrom}
       O -3.14791e+00  1.08378e+00  3.56267e-01
       H -2.75938e+00  1.01142e+00 -5.86157e-01
       H -2.69557e+00  4.73032e-01  9.62007e-01
       H -3.96296e+00  1.38296e+00  6.54620e-01
4
# CELL(abcABC): 1000.00000  1000.00000  1000.00000    90.00000    90.00000    90.00000  Step:          65  Bead:       0 positions{angstrom}  cell{angstrom}
       O -3.14812e+00  1.08199e+00  3.55436e-01
       H -2.75445e+00  1.02345e+00 -5.83401e-01
       H -2.68725e+00  4.86577e-01  9.70647e-01
       H -3.97287e+00  1.38593e+00  6.56427e-01
4
# CELL(abcABC): 1000.00000  1000.00000  1000.00000    90.00000    90.00000    90.00000  Step:          66  Bead:       0 positions{angstrom}  cell{angstrom}
       O -3.14793e+00  1.07985e+00  3.54250e-01
       H -2.75283e+00  1.03935e+00 -5.73923e-01
       H -2.67954e+00  4.99694e-01  9.78100e-01
       H -3.98517e+00  1.39073e+00  6.58319e-01
4
# CELL(abcABC): 1000.00000  1000.00000  1000.00000    90.00000    90.00000    90.00000  Step:          67  Bead:       0 positions{angstrom}  cell{angstrom}
       O -3.14737e+00  1.07761e+00  3.52884e-01
       H -2.75382e+00  1.05559e+00 -5.60061e-01
       H -2.67200e+00  5.13893e-01  9.84462e-01
       H -4.00068e+00  1.39586e+00  6.59772e-01
4
# CELL(abcABC): 1000.00000  1000.00000  1000.00000    90.00000    90.00000    90.00000  Step:          68  Bead:       0 positions{angstrom}  cell{angstrom}
       O -3.14666e+00  1.07520e+00  3.51606e-01
       H -2.75644e+00  1.07258e+00 -5.42684e-01
       H -2.66467e+00  5.29048e-01  9.87604e-01
       H -4.01668e+00  1.40203e+00  6.59545e-01
4
# CELL(abcABC): 1000.00000  1000.00000  1000.00000    90.00000    90.00000    90.00000  Step:          69  Bead:       0 positions{angstrom}  cell{angstrom}
       O -3.14586e+00  1.07284e+00  3.50221e-01
       H -2.76078e+00  1.08881e+00 -5.21767e-01
       H -2.65827e+00  5.44902e-01  9.90224e-01
       H -4.03140e+00  1.40744e+00  6.57990e-01
4
# CELL(abcABC): 1000.00000  1000.00000  1000.00000    90.00000    90.00000    90.00000  Step:          70  Bead:       0 positions{angstrom}  cell{angstrom}
       O -3.14536e+00  1.07033e+00  3.49076e-01
       H -2.76489e+00  1.10622e+00 -5.02456e-01
       H -2.65159e+00  5.61839e-01  9.91435e-01
       H -4.04197e+00  1.41284e+00  6.55636e-01
4
# CELL(abcABC): 1000.00000  1000.00000  1000.00000    90.00000    90.00000    90.00000  Step:          71  Bead:       0 positions{angstrom}  cell{angstrom}
       O -3.14510e+00  1.06794e+00  3.48386e-01
       H -2.76857e+00  1.12305e+00 -4.87862e-01
       H -2.64483e+00  5.78216e-01  9.91508e-01
       H -4.04914e+00  1.41761e+00  6.51932e-01
4
# CELL(abcABC): 1000.00000  1000.00000  1000.00000    90.00000    90.00000    90.00000  Step:          72  Bead:       0 positions{angstrom}  cell{angstrom}
       O -3.14530e+00  1.06552e+00  3.48135e-01
       H -2.76969e+00  1.14070e+00 -4.78440e-01
       H -2.63693e+00  5.94347e-01  9.92152e-01
       H -4.05270e+00  1.42234e+00  6.45849e-01
4
# CELL(abcABC): 1000.00000  1000.00000  1000.00000    90.00000    90.00000    90.00000  Step:          73  Bead:       0 positions{angstrom}  cell{angstrom}
       O -3.14596e+00  1.06320e+00  3.48481e-01
       H -2.76809e+00  1.15885e+00 -4.75755e-01
       H -2.62781e+00  6.10176e-01  9.93101e-01
       H -4.05296e+00  1.42507e+00  6.36718e-01
4
# CELL(abcABC): 1000.00000  1000.00000  1000.00000    90.00000    90.00000    90.00000  Step:          74  Bead:       0 positions{angstrom}  cell{angstrom}
       O -3.14716e+00  1.06092e+00  3.49463e-01
       H -2.76328e+00  1.17772e+00 -4.80696e-01
       H -2.61727e+00  6.25193e-01  9.93537e-01
       H -4.04924e+00  1.42734e+00  6.25643e-01
4
# CELL(abcABC): 1000.00000  1000.00000  1000.00000    90.00000    90.00000    90.00000  Step:          75  Bead:       0 positions{angstrom}  cell{angstrom}
       O -3.14865e+00  1.05879e+00  3.50774e-01
       H -2.75676e+00  1.19605e+00 -4.90746e-01
       H -2.60584e+00  6.38680e-01  9.95686e-01
       H -4.04350e+00  1.42938e+00  6.12736e-01
4
# CELL(abcABC): 1000.00000  1000.00000  1000.00000    90.00000    90.00000    90.00000  Step:          76  Bead:       0 positions{angstrom}  cell{angstrom}
       O -3.15057e+00  1.05665e+00  3.52105e-01
       H -2.74823e+00  1.21468e+00 -5.01772e-01
       H -2.59328e+00  6.51373e-01  9.98924e-01
       H -4.03426e+00  1.43201e+00  5.99387e-01
4
# CELL(abcABC): 1000.00000  1000.00000  1000.00000    90.00000    90.00000    90.00000  Step:          77  Bead:       0 positions{angstrom}  cell{angstrom}
       O -3.15259e+00  1.05460e+00  3.53369e-01
       H -2.73969e+00  1.23381e+00 -5.12352e-01
       H -2.58030e+00  6.63749e-01  1.00360e+00
       H -4.02366e+00  1.43305e+00  5.85235e-01
4
# CELL(abcABC): 1000.00000  1000.00000  1000.00000    90.00000    90.00000    90.00000  Step:          78  Bead:       0 positions{angstrom}  cell{angstrom}
       O -3.15459e+00  1.05268e+00  3.54622e-01
       H -2.73323e+00  1.25137e+00 -5.21281e-01
       H -2.56616e+00  6.76460e-01  1.00848e+00
       H -4.01247e+00  1.43335e+00  5.69386e-01
4
# CELL(abcABC): 1000.00000  1000.00000  1000.00000    90.00000    90.00000    90.00000  Step:          79  Bead:       0 positions{angstrom}  cell{angstrom}
       O -3.15653e+00  1.05095e+00  3.55565e-01
       H -2.72912e+00  1.26811e+00 -5.24729e-01
       H -2.55095e+00  6.88354e-01  1.01316e+00
       H -4.00097e+00  1.43212e+00  5.53190e-01
4
# CELL(abcABC): 1000.00000  1000.00000  1000.00000    90.00000    90.00000    90.00000  Step:          80  Bead:       0 positions{angstrom}  cell{angstrom}
       O -3.15829e+00  1.04932e+00  3.56068e-01
       H -2.72679e+00  1.28347e+00 -5.23053e-01
       H -2.53623e+00  7.00376e-01  1.01834e+00
       H -3.99010e+00  1.43067e+00  5.38357e-01
4
# CELL(abcABC): 1000.00000  1000.00000  1000.00000    90.00000    90.00000    90.00000  Step:          81  Bead:       0 positions{angstrom}  cell{angstrom}
       O -3.15970e+00  1.04758e+00  3.56287e-01
       H -2.72475e+00  1.29786e+00 -5.16546e-01
       H -2.52371e+00  7.15021e-01  1.02258e+00
       H -3.98233e+00  1.42918e+00  5.24136e-01
4
# CELL(abcABC): 1000.00000  1000.00000  1000.00000    90.00000    90.00000    90.00000  Step:          82  Bead:       0 positions{angstrom}  cell{angstrom}
       O -3.16058e+00  1.04598e+00  3.56068e-01
       H -2.72443e+00  1.30975e+00 -5.03911e-01
       H -2.51301e+00  7.29447e-01  1.02528e+00
       H -3.97933e+00  1.42825e+00  5.12265e-01
4
# CELL(abcABC): 1000.00000  1000.00000  1000.00000    90.00000    90.00000    90.00000  Step:          83  Bead:       0 positions{angstrom}  cell{angstrom}
       O -3.16093e+00  1.04429e+00  3.55553e-01
       H -2.72623e+00  1.32024e+00 -4.86180e-01
       H -2.50494e+00  7.45356e-01  1.02631e+00
       H -3.98006e+00  1.42867e+00  5.01690e-01
4
# CELL(abcABC): 1000.00000  1000.00000  1000.00000    90.00000    90.00000    90.00000  Step:          84  Bead:       0 positions{angstrom}  cell{angstrom}
       O -3.16070e+00  1.04256e+00  3.54845e-01
       H -2.72857e+00  1.32846e+00 -4.66071e-01
       H -2.50073e+00  7.62533e-01  1.02556e+00
       H -3.98553e+00  1.43074e+00  4.93572e-01
4
# CELL(abcABC): 1000.00000  1000.00000  1000.00000    90.00000    90.00000    90.00000  Step:          85  Bead:       0 positions{angstrom}  cell{angstrom}