4
# CELL(abcABC): 1000.00000  1000.00000  1000.00000    90.00000    90.00000    90.00000  Step:           0  Bead:       0 positions{angstrom}  cell{angstrom}
       O -3.15475e+00  1.06050e+00  3.43644e-01
       H -4.01539e+00  8.03019e-01  5.44943e-01
       H -2.39495e+00  4.59968e-01  4.98846e-01
       H -2.89914e+00  1.97419e+00  1.87098e-01
4
# CELL(abcABC): 1000.00000  1000.00000  1000.00000    90.00000    90.00000    90.00000  Step:           1  Bead:       0 positions{angstrom}  cell{angstrom}
       O -3.15278e+00  1.06076e+00  3.43068e-01
       H -4.02781e+00  7.95126e-01  5.49854e-01
       H -2.39624e+00  4.59735e-01  4.99786e-01
       H -2.91667e+00  1.97821e+00  1.90386e-01
4
# CELL(abcABC): 1000.00000  1000.00000  1000.00000    90.00000    90.00000    90.00000  Step:           2  Bead:       0 positions{angstrom}  cell{angstrom}
       O -3.15052e+00  1.06089e+00  3.42463e-01
       H -4.04328e+00  7.86750e-01  5.56015e-01
       H -2.39854e+00  4.60409e-01  5.00336e-01
       H -2.93475e+00  1.98387e+00  1.93285e-01
4
# CELL(abcABC): 1000.00000  1000.00000  1000.00000    90.00000    90.00000    90.00000  Step:           3  Bead:       0 positions{angstrom}  cell{angstrom}
       O -3.14806e+00  1.06091e+00  3.41799e-01
       H -4.05838e+00  7.77239e-01  5.64077e-01
       H -2.40328e+00  4.63082e-01  5.01239e-01
       H -2.95401e+00  1.99039e+00  1.94854e-01
4
# CELL(abcABC): 1000.00000  1000.00000  1000.00000    90.00000    90.00000    90.00000  Step:           4  Bead:       0 positions{angstrom}  cell{angstrom}
       O -3.14566e+00  1.06083e+00  3.41265e-01
       H -4.07146e+00  7.67205e-01  5.70599e-01
       H -2.40881e+00  4.67080e-01  5.01604e-01
       H -2.97342e+00  1.99759e+00  1.96442e-01
4
# CELL(abcABC): 1000.00000  1000.00000  1000.00000    90.00000    90.00000    90.00000  Step:           5  Bead:       0 positions{angstrom}  cell{angstrom}
       O -3.14340e+00  1.06053e+00  3.40842e-01
       H -4.08122e+00  7.58331e-01  5.75926e-01
       H -2.41547e+00  4.72497e-01  5.03113e-01
       H -2.99290e+00  2.00585e+00  1.96319e-01
4
# CELL(abcABC): 1000.00000  1000.00000  1000.00000    90.00000    90.00000    90.00000  Step:           6  Bead:       0 positions{angstrom}  cell{angstrom}
       O -3.14142e+00  1.06025e+00  3.40532e-01
       H -4.08552e+00  7.51165e-01  5.79030e-01
       H -2.42211e+00  4.75951e-01  5.04041e-01
       H -3.01337e+00  2.01406e+00  1.97220e-01
4
# CELL(abcABC): 1000.00000  1000.00000  1000.00000    90.00000    90.00000    90.00000  Step:           7  Bead:       0 positions{angstrom}  cell{angstrom}
       O -3.14001e+00  1.05988e+00  3.40097e-01
       H -4.08228e+00  7.45586e-01  5.81945e-01
       H -2.42721e+00  4.78021e-01  5.06427e-01
       H -3.03399e+00  2.02349e+00  1.98812e-01
4
# CELL(abcABC): 1000.00000  1000.00000  1000.00000    90.00000    90.00000    90.00000  Step:           8  Bead:       0 positions{angstrom}  cell{angstrom}
       O -3.13926e+00  1.05959e+00  3.39764e-01
       H -4.07192e+00  7.41559e-01  5.82695e-01
       H -2.42877e+00  4.77665e-01  5.09042e-01
       H -3.05469e+00  2.03233e+00  2.00733e-01
4
# CELL(abcABC): 1000.00000  1000.00000  1000.00000    90.00000    90.00000    90.00000  Step:           9  Bead:       0 positions{angstrom}  cell{angstrom}
       O -3.13913e+00  1.05953e+00  3.39327e-01
       H -4.05592e+00  7.37985e-01  5.83189e-01
       H -2.42647e+00  4.75884e-01  5.13183e-01
       H -3.07509e+00  2.03868e+00  2.03034e-01
4
# CELL(abcABC): 1000.00000  1000.00000  1000.00000    90.00000    90.00000    90.00000  Step:          10  Bead:       0 positions{angstrom}  cell{angstrom}
       O -3.13949e+00  1.05955e+00  3.39018e-01
       H -4.03526e+00  7.35280e-01  5.81795e-01
       H -2.42145e+00  4.73618e-01  5.17437e-01
       H -3.09497e+00  2.04337e+00  2.05089e-01
4
# CELL(abcABC): 1000.00000  1000.00000  1000.00000    90.00000    90.00000    90.00000  Step:          11  Bead:       0 positions{angstrom}  cell{angstrom}
       O -3.14021e+00  1.05974e+00  3.38837e-01
       H -4.01154e+00  7.33586e-01  5.78398e-01
       H -2.41577e+00  4.70564e-01  5.21928e-01
       H -3.11296e+00  2.04515e+00  2.06865e-01
4
# CELL(abcABC): 1000.00000  1000.00000  1000.00000    90.00000    90.00000    90.00000  Step:          12  Bead:       0 positions{angstrom}  cell{angstrom}
       O -3.14124e+00  1.06015e+00  3.38696e-01
       H -3.98609e+00  7.31186e-01  5.74597e-01
       H -2.40901e+00  4.66542e-01  5.25816e-01
       H -3.12887e+00  2.04506e+00  2.09015e-01
4
# CELL(abcABC): 1000.00000  1000.00000  1000.00000    90.00000    90.00000    90.00000  Step:          13  Bead:       0 positions{angstrom}  cell{angstrom}
       O -3.14228e+00  1.06074e+00  3.38470e-01
       H -3.96319e+00  7.27781e-01  5.71795e-01
       H -2.40069e+00  4.63485e-01  5.29813e-01
       H -3.14360e+00  2.04206e+00  2.11402e-01
4
# CELL(abcABC): 1000.00000  1000.00000  1000.00000    90.00000    90.00000    90.00000  Step:          14  Bead:       0 positions{angstrom}  cell{angstrom}
       O -3.14309e+00  1.06148e+00  3.38106e-01
       H -3.94459e+00  7.21370e-01  5.71071e-01
       H -2.39249e+00  4.63009e-01  5.33595e-01
       H -3.15750e+00  2.03722e+00  2.14124e-01
4
# CELL(abcABC): 1000.00000  1000.00000  1000.00000    90.00000    90.00000    90.00000  Step:          15  Bead:       0 positions{angstrom}  cell{angstrom}
       O -3.14336e+00  1.06224e+00  3.37392e-01
       H -3.93609e+00  7.10774e-01  5.74925e-01
       H -2.38623e+00  4.65753e-01  5.37157e-01
       H -3.16802e+00  2.03296e+00  2.18042e-01
4
# CELL(abcABC): 1000.00000  1000.00000  1000.00000    90.00000    90.00000    90.00000  Step:          16  Bead:       0 positions{angstrom}  cell{angstrom}
       O -3.14314e+00  1.06301e+00  3.36537e-01
       H -3.93510e+00  6.96033e-01  5.81052e-01
       H -2.38184e+00  4.72710e-01  5.40248e-01
       H -3.17688e+00  2.02866e+00  2.22392e-01
4
# CELL(abcABC): 1000.00000  1000.00000  1000.00000    90.00000    90.00000    90.00000  Step:          17  Bead:       0 positions{angstrom}  cell{angstrom}
       O -3.14237e+00  1.06374e+00  3.35560e-01
       H -3.94070e+00  6.78605e-01  5.89673e-01
       H -2.38021e+00  4.83618e-01  5.41807e-01
       H -3.18510e+00  2.02349e+00  2.27732e-01
4
# CELL(abcABC): 1000.00000  1000.00000  1000.00000    90.00000    90.00000    90.00000  Step:          18  Bead:       0 positions{angstrom}  cell{angstrom}
       O -3.14127e+00  1.06426e+00  3.34504e-01
       H -3.95223e+00  6.60074e-01  6.00002e-01
       H -2.37881e+00  4.97564e-01  5.42785e-01
       H -3.19240e+00  2.01983e+00  2.33177e-01
4
# CELL(abcABC): 1000.00000  1000.00000  1000.00000    90.00000    90.00000    90.00000  Step:          19  Bead:       0 positions{angstrom}  cell{angstrom}
       O -3.14019e+00  1.06460e+00  3.33410e-01
       H -3.96523e+00  6.41010e-01  6.11342e-01
       H -2.37886e+00  5.13493e-01  5.42742e-01
       H -3.19649e+00  2.01757e+00  2.39247e-01
4
# CELL(abcABC): 1000.00000  1000.00000  1000.00000    90.00000    90.00000    90.00000  Step:          20  Bead:       0 positions{angstrom}  cell{angstrom}
       O -3.13926e+00  1.06470e+00  3.32401e-01
       H -3.97729e+00  6.23445e-01  6.20879e-01
       H -2.37964e+00  5.31354e-01  5.42821e-01
       H -3.19850e+00  2.01577e+00  2.45654e-01
4
# CELL(abcABC): 1000.00000  1000.00000  1000.00000    90.00000    90.00000    90.00000  Step:          21  Bead:       0 positions{angstrom}  cell{angstrom}
       O -3.13875e+00  1.06447e+00  3.31527e-01
       H -3.98679e+00  6.07578e-01  6.28027e-01
       H -2.37744e+00  5.50719e-01  5.44055e-01
       H -3.19925e+00  2.01585e+00  2.51147e-01
4
# CELL(abcABC): 1000.00000  1000.00000  1000.00000    90.00000    90.00000    90.00000  Step:          22  Bead:       0 positions{angstrom}  cell{angstrom}
       O -3.13881e+00  1.06385e+00  3.30836e-01
       H -3.99297e+00  5.93860e-01  6.34339e-01
       H -2.37068e+00  5.70500e-01  5.44184e-01
       H -3.19878e+00  2.01963e+00  2.55677e-01
4
# CELL(abcABC): 1000.00000  1000.00000  1000.00000    90.00000    90.00000    90.00000  Step:          23  Bead:       0 positions{angstrom}  cell{angstrom}
       O -3.13952e+00  1.06293e+00  3.30434e-01
       H -3.99360e+00  5.84262e-01  6.37957e-01
       H -2.35995e+00  5.90396e-01  5.45384e-01
       H -3.19776e+00  2.02389e+00  2.57235e-01
4
# CELL(abcABC): 1000.00000  1000.00000  1000.00000    90.00000    90.00000    90.00000  Step:          24  Bead:       0 positions{angstrom}  cell{angstrom}
       O -3.14086e+00  1.06167e+00  3.30147e-01
       H -3.98792e+00  5.77481e-01  6.39248e-01
       H -2.34571e+00  6.10742e-01  5.47567e-01
       H -3.19640e+00  2.03038e+00  2.58322e-01
4
# CELL(abcABC): 1000.00000  1000.00000  1000.00000    90.00000    90.00000    90.00000  Step:          25  Bead:       0 positions{angstrom}  cell{angstrom}
       O -3.14271e+00  1.06030e+00  3.29867e-01
       H -3.97677e+00  5.73439e-01  6.39211e-01
       H -2.32918e+00  6.29825e-01  5.50603e-01
       H -3.19468e+00  2.03707e+00  2.59756e-01
4
# CELL(abcABC): 1000.00000  1000.00000  1000.00000    90.00000    90.00000    90.00000  Step:          26  Bead:       0 positions{angstrom}  cell{angstrom}
       O -3.14497e+00  1.05889e+00  3.29647e-01
       H -3.96080e+00  5.72108e-01  6.36644e-01
       H -2.31075e+00  6.48201e-01  5.53920e-01
       H -3.19320e+00  2.04245e+00  2.62507e-01
4
# CELL(abcABC): 1000.00000  1000.00000  1000.00000    90.00000    90.00000    90.00000  Step:          27  Bead:       0 positions{angstrom}  cell{angstrom}
       O -3.14757e+00  1.05740e+00  3.29516e-01
       H -3.94142e+00  5.74390e-01  6.32101e-01
       H -2.29205e+00  6.65611e-01  5.57096e-01
       H -3.19000e+00  2.04638e+00  2.65947e-01
4
# CELL(abcABC): 1000.00000  1000.00000  1000.00000    90.00000    90.00000    90.00000  Step:          28  Bead:       0 positions{angstrom}  cell{angstrom}
       O -3.15013e+00  1.05594e+00  3.29356e-01
       H -3.92137e+00  5.76688e-01  6.26859e-01
       H -2.27401e+00  6.83292e-01  5.60402e-01
       H -3.18749e+00  2.04958e+00  2.70422e-01
4
# CELL(abcABC): 1000.00000  1000.00000  1000.00000    90.00000    90.00000    90.00000  Step:          29  Bead:       0 positions{angstrom}  cell{angstrom}
       O -3.15248e+00  1.05456e+00  3.29204e-01
       H -3.90110e+00  5.79467e-01  6.20552e-01
       H -2.25957e+00  7.01259e-01  5.63286e-01
       H -3.18481e+00  2.05078e+00  2.76260e-01
4
# CELL(abcABC): 1000.00000  1000.00000  1000.00000    90.00000    90.00000    90.00000  Step:          30  Bead:       0 positions{angstrom}  cell{angstrom}
       O -3.15437e+00  1.05329e+00  3.28955e-01
       H -3.88348e+00  5.81745e-01  6.16418e-01
       H -2.24909e+00  7.19521e-01  5.65958e-01
       H -3.18295e+00  2.05031e+00  2.81681e-01
4
# CELL(abcABC): 1000.00000  1000.00000  1000.00000    90.00000    90.00000    90.00000  Step:          31  Bead:       0 positions{angstrom}  cell{angstrom}
       O -3.15571e+00  1.05224e+00  3.28646e-01
       H -3.86976e+00  5.81046e-01  6.14933e-01
       H -2.24236e+00  7.39117e-01  5.67256e-01
       H -3.18206e+00  2.04807e+00  2.86762e-01
4
# CELL(abcABC): 1000.00000  1000.00000  1000.00000    90.00000    90.00000    90.00000  Step:          32  Bead:       0 positions{angstrom}  cell{angstrom}
       O -3.15622e+00  1.05170e+00  3.27995e-01
       H -3.86418e+00  5.74061e-01  6.17328e-01
       H -2.23968e+00  7.59926e-01  5.69008e-01
       H -3.18230e+00  2.04285e+00  2.92954e-01
4
# CELL(abcABC): 1000.00000  1000.00000  1000.00000    90.00000    90.00000    90.00000  Step:          33  Bead:       0 positions{angstrom}  cell{angstrom}
       O -3.15590e+00  1.05171e+00  3.27065e-01
       H -3.86636e+00  5.61813e-01  6.24302e-01
       H -2.24099e+00  7.79315e-01  5.70593e-01
       H -3.18391e+00  2.03559e+00  2.99155e-01
4
# CELL(abcABC): 1000.00000  1000.00000  1000.00000    90.00000    90.00000    90.00000  Step:          34  Bead:       0 positions{angstrom}  cell{angstrom}
       O -3.15476e+00  1.05210e+00  3.26099e-01
       H -3.87363e+00  5.45809e-01  6.33808e-01
       H -2.24784e+00  7.97326e-01  5.72041e-01
       H -3.18781e+00  2.02741e+00  3.03532e-01
4
# CELL(abcABC): 1000.00000  1000.00000  1000.00000    90.00000    90.00000    90.00000  Step:          35  Bead:       0 positions{angstrom}  cell{angstrom}
       O -3.15321e+00  1.05267e+00  3.25060e-01
       H -3.88222e+00  5.27809e-01  6.44162e-01
       H -2.25840e+00  8.14858e-01  5.74022e-01
       H -3.19334e+00  2.01874e+00  3.07700e-01
4
# CELL(abcABC): 1000.00000  1000.00000  1000.00000    90.00000    90.00000    90.00000  Step:          36  Bead:       0 positions{angstrom}  cell{angstrom}
       O -3.15149e+00  1.05325e+00  3.24014e-01
       H -3.89108e+00  5.09640e-01  6.54426e-01
       H -2.26954e+00  8.31703e-01  5.75486e-01
       H -3.20056e+00  2.01094e+00  3.12569e-01
4
# CELL(abcABC): 1000.00000  1000.00000  1000.00000    90.00000    90.00000    90.00000  Step:          37  Bead:       0 positions{angstrom}  cell{angstrom}
       O -3.14991e+00  1.05384e+00  3.22865e-01
       H -3.89767e+00  4.93665e-01  6.65848e-01
       H -2.27882e+00  8.45382e-01  5.77320e-01
       H -3.20986e+00  2.00383e+00  3.17551e-01
4
# CELL(abcABC): 1000.00000  1000.00000  1000.00000    90.00000    90.00000    90.00000  Step:          38  Bead:       0 positions{angstrom}  cell{angstrom}
       O -3.14845e+00  1.05429e+00  3.21906e-01
       H -3.90200e+00  4.80064e-01  6.74676e-01
       H -2.28476e+00  8.54937e-01  5.80222e-01
       H -3.22270e+00  2.00075e+00  3.21050e-01
4
# CELL(abcABC): 1000.00000  1000.00000  1000.00000    90.00000    90.00000    90.00000  Step:          39  Bead:       0 positions{angstrom}  cell{angstrom}
       O -3.14761e+00  1.05466e+00  3.20879e-01
       H -3.90124e+00  4.69308e-01  6.82021e-01
       H -2.28566e+00  8.60081e-01  5.85727e-01
       H -3.23600e+00  2.00042e+00  3.24491e-01
4
# CELL(abcABC): 1000.00000  1000.00000  1000.00000    90.00000    90.00000    90.00000  Step:          40  Bead:       0 positions{angstrom}  cell{angstrom}
       O -3.14730e+00  1.05476e+00  3.19717e-01
       H -3.89554e+00  4.62622e-01  6.87992e-01
       H -2.28141e+00  8.62233e-01  5.94629e-01
       H -3.25075e+00  2.00339e+00  3.28071e-01
4
# CELL(abcABC): 1000.00000  1000.00000  1000.00000    90.00000    90.00000    90.00000  Step:          41  Bead:       0 positions{angstrom}  cell{angstrom}
       O -3.14746e+00  1.05460e+00  3.18567e-01
       H -3.88519e+00  4.60741e-01  6.91075e-01
       H -2.27254e+00  8.62057e-01  6.05357e-01
       H -3.26747e+00  2.00797e+00  3.32513e-01
4
# CELL(abcABC): 1000.00000  1000.00000  1000.00000    90.00000    90.00000    90.00000  Step:          42  Bead:       0 positions{angstrom}  cell{angstrom}
       O -3.14808e+00  1.05438e+00  3.17558e-01
       H -3.86884e+00  4.60826e-01  6.91465e-01
       H -2.26105e+00  8.59854e-01  6.17422e-01
       H -3.28551e+00  2.01370e+00  3.36070e-01
4
# CELL(abcABC): 1000.00000  1000.00000  1000.00000    90.00000    90.00000    90.00000  Step:          43  Bead:       0 positions{angstrom}  cell{angstrom}
       O -3.14887e+00  1.05395e+00  3.16677e-01
       H -3.84909e+00  4.64920e-01  6.89461e-01
       H -2.24907e+00  8.57647e-01  6.29983e-01
       H -3.30470e+00  2.01865e+00  3.39505e-01
4
# CELL(abcABC): 1000.00000  1000.00000  1000.00000    90.00000    90.00000    90.00000  Step:          44  Bead:       0 positions{angstrom}  cell{angstrom}
       O -3.14963e+00  1.05349e+00  3.15918e-01
       H -3.82685e+00  4.70464e-01  6.85396e-01
       H -2.23853e+00  8.54385e-01  6.41627e-01
       H -3.32535e+00  2.02352e+00  3.43966e-01
4
# CELL(abcABC): 1000.00000  1000.00000  1000.00000    90.00000    90.00000    90.00000  Step:          45  Bead:       0 positions{angstrom}  cell{angstrom}
       O -3.15011e+00  1.05313e+00  3.15332e-01
       H -3.80467e+00  4.76788e-01  6.80083e-01
       H -2.23031e+00  8.50453e-01  6.51378e-01
       H -3.34810e+00  2.02695e+00  3.48836e-01
4
# CELL(abcABC): 1000.00000  1000.00000  1000.00000    90.00000    90.00000    90.00000  Step:          46  Bead:       0 positions{angstrom}  cell{angstrom}
       O -3.15028e+00  1.05297e+00  3.14860e-01
       H -3.78416e+00  4.82576e-01  6.74795e-01
       H -2.22629e+00  8.46139e-01  6.59054e-01
       H -3.37005e+00  2.02797e+00  3.53937e-01
4
# CELL(abcABC): 1000.00000  1000.00000  1000.00000    90.00000    90.00000    90.00000  Step:          47  Bead:       0 positions{angstrom}  cell{angstrom}
       O -3.14991e+00  1.05301e+00  3.14550e-01
       H -3.76728e+00  4.85023e-01  6.71313e-01
       H -2.22675e+00  8.42916e-01  6.63903e-01
       H -3.39227e+00  2.02809e+00  3.57495e-01
4
# CELL(abcABC): 1000.00000  1000.00000  1000.00000    90.00000    90.00000    90.00000  Step:          48  Bead:       0 positions{angstrom}  cell{angstrom}
       O -3.14894e+00  1.05355e+00  3.14224e-01
       H -3.75521e+00  4.81793e-01  6.70540e-01
       H -2.23188e+00  8.41461e-01  6.65885e-01
       H -3.41461e+00  2.02427e+00  3.61464e-01
4
# CELL(abcABC): 1000.00000  1000.00000  1000.00000    90.00000    90.00000    90.00000  Step:          49  Bead:       0 positions{angstrom}  cell{angstrom}
       O -3.14744e+00  1.05452e+00  3.13756e-01
       H -3.74898e+00  4.72731e-01  6.73033e-01
       H -2.23999e+00  8.41091e-01  6.65896e-01
       H -3.43657e+00  2.01823e+00  3.66387e-01
4
# CELL(abcABC): 1000.00000  1000.00000  1000.00000    90.00000    90.00000    90.00000  Step:          50  Bead:       0 positions{angstrom}  cell{angstrom}
       O -3.14530e+00  1.05596e+00  3.13369e-01
       H -3.74842e+00  4.58846e-01  6.77501e-01
       H -2.25313e+00  8.41475e-01  6.64111e-01
       H -3.45795e+00  2.00893e+00  3.69838e-01
4
# CELL(abcABC): 1000.00000  1000.00000  1000.00000    90.00000    90.00000    90.00000  Step:          51  Bead:       0 positions{angstrom}  cell{angstrom}
       O -3.14290e+00  1.05767e+00  3.13009e-01
       H -3.75214e+00  4.40974e-01  6.82793e-01
       H -2.26845e+00  8.43641e-01  6.60766e-01
       H -3.47705e+00  1.99749e+00  3.73607e-01
4
# CELL(abcABC): 1000.00000  1000.00000  1000.00000    90.00000    90.00000    90.00000  Step:          52  Bead:       0 positions{angstrom}  cell{angstrom}
       O -3.14045e+00  1.05961e+00  3.12805e-01
       H -3.75828e+00  4.21192e-01  6.88098e-01
       H -2.28401e+00  8.46570e-01  6.55556e-01
       H -3.49422e+00  1.98351e+00  3.76746e-01
4
# CELL(abcABC): 1000.00000  1000.00000  1000.00000    90.00000    90.00000    90.00000  Step:          53  Bead:       0 positions{angstrom}  cell{angstrom}
       O -3.13826e+00  1.06151e+00  3.12631e-01
       H -3.76398e+00  4.02184e-01  6.91272e-01
       H -2.29758e+00  8.51995e-01  6.51132e-01
       H -3.50975e+00  1.96697e+00  3.80764e-01
4
# CELL(abcABC): 1000.00000  1000.00000  1000.00000    90.00000    90.00000    90.00000  Step:          54  Bead:       0 positions{angstrom}  cell{angstrom}
       O -3.13651e+00  1.06334e+00  3.12244e-01
       H -3.76838e+00  3.84105e-01  6.93407e-01
       H -2.30701e+00  8.58899e-01  6.48598e-01
       H -3.52368e+00  1.94915e+00  3.87310e-01
4
# CELL(abcABC): 1000.00000  1000.00000  1000.00000    90.00000    90.00000    90.00000  Step:          55  Bead:       0 positions{angstrom}  cell{angstrom}
       O -3.13544e+00  1.06489e+00  3.11848e-01
       H -3.77079e+00  3.69221e-01  6.93547e-01
       H -2.30998e+00  8.66425e-01  6.48672e-01
       H -3.53522e+00  1.93186e+00  3.93375e-01
4
# CELL(abcABC): 1000.00000  1000.00000  1000.00000    90.00000    90.00000    90.00000  Step:          56  Bead:       0 positions{angstrom}  cell{angstrom}
       O -3.13515e+00  1.06599e+00  3.11465e-01
       H -3.76764e+00  3.58476e-01  6.91142e-01
       H -2.30609e+00  8.74144e-01  6.49980e-01
       H -3.54681e+00  1.91745e+00  4.00550e-01
4
# CELL(abcABC): 1000.00000  1000.00000  1000.00000    90.00000    90.00000    90.00000  Step:          57  Bead:       0 positions{angstrom}  cell{angstrom}
       O -3.13554e+00  1.06653e+00  3.11053e-01
       H -3.75913e+00  3.52506e-01  6.86027e-01
       H -2.29668e+00  8.82016e-01  6.54510e-01
       H -3.55854e+00  1.90690e+00  4.07682e-01
4
# CELL(abcABC): 1000.00000  1000.00000  1000.00000    90.00000    90.00000    90.00000  Step:          58  Bead:       0 positions{angstrom}  cell{angstrom}
       O -3.13658e+00  1.06656e+00  3.10685e-01
       H -3.74583e+00  3.49815e-01  6.77694e-01
       H -2.28177e+00  8.90821e-01  6.61411e-01
       H -3.57024e+00  1.90029e+00  4.14953e-01
4
# CELL(abcABC): 1000.00000  1000.00000  1000.00000    90.00000    90.00000    90.00000  Step:          59  Bead:       0 positions{angstrom}  cell{angstrom}
       O -3.13809e+00  1.06600e+00  3.10278e-01
       H -3.72837e+00  3.50667e-01  6.66795e-01
       H -2.26364e+00  9.01480e-01  6.70828e-01
       H -3.58198e+00  1.89770e+00  4.22891e-01
4
# CELL(abcABC): 1000.00000  1000.00000  1000.00000    90.00000    90.00000    90.00000  Step:          60  Bead:       0 positions{angstrom}  cell{angstrom}
       O -3.13984e+00  1.06502e+00  3.10026e-01
       H -3.70962e+00  3.53473e-01  6.53951e-01
       H -2.24427e+00  9.13229e-01  6.78650e-01
       H -3.59233e+00  1.89871e+00  4.31920e-01
4
# CELL(abcABC): 1000.00000  1000.00000  1000.00000    90.00000    90.00000    90.00000  Step:          61  Bead:       0 positions{angstrom}  cell{angstrom}
       O -3.14169e+00  1.06376e+00  3.09926e-01
       H -3.68891e+00  3.56547e-01  6.39650e-01
       H -2.22543e+00  9.26583e-01  6.84262e-01
       H -3.60239e+00  1.90234e+00  4.42192e-01
4
# CELL(abcABC): 1000.00000  1000.00000  1000.00000    90.00000    90.00000    90.00000  Step:          62  Bead:       0 positions{angstrom}  cell{angstrom}
       O -3.14330e+00  1.06245e+00  3.10081e-01
       H -3.66947e+00  3.57623e-01  6.24695e-01
       H -2.21147e+00  9.41226e-01  6.87689e-01
       H -3.61034e+00  1.90733e+00  4.51265e-01
4
# CELL(abcABC): 1000.00000  1000.00000  1000.00000    90.00000    90.00000    90.00000  Step:          63  Bead:       0 positions{angstrom}  cell{angstrom}
       O -3.14450e+00  1.06113e+00  3.10185e-01
       H -3.65176e+00  3.56495e-01  6.10980e-01
       H -2.20281e+00  9.56677e-01  6.88776e-01
       H -3.61755e+00  1.91407e+00  4.62235e-01
4
# CELL(abcABC): 1000.00000  1000.00000  1000.00000    90.00000    90.00000    90.00000  Step:          64  Bead:       0 positions{angstrom}  cell{angstrom}
       O -3.14529e+00  1.06008e+00  3.10327e-01
       H -3.63626e+00  3.50662e-01  5.99869e-01
       H -2.19949e+00  9.73149e-01  6.87473e-01
       H -3.62385e+00  1.91998e+00  4.72399e-01
4
# CELL(abcABC): 1000.00000  1000.00000  1000.00000    90.00000    90.00000    90.00000  Step:          65  Bead:       0 positions{angstrom}  cell{angstrom}
       O -3.14558e+00  1.05942e+00  3.10551e-01
       H -3.62584e+00  3.39361e-01  5.89783e-01
       H -2.20139e+00  9.91812e-01  6.83543e-01
       H -3.62783e+00  1.92315e+00  4.82851e-01
4
# CELL(abcABC): 1000.00000  1000.00000  1000.00000    90.00000    90.00000    90.00000  Step:          66  Bead:       0 positions{angstrom}  cell{angstrom}
       O -3.14540e+00  1.05916e+00  3.10740e-01
       H -3.61983e+00  3.24598e-01  5.82500e-01
       H -2.20870e+00  1.00962e+00  6.77623e-01
       H -3.62937e+00  1.92431e+00  4.93054e-01
4
# CELL(abcABC): 1000.00000  1000.00000  1000.00000    90.00000    90.00000    90.00000  Step:          67  Bead:       0 positions{angstrom}  cell{angstrom}
       O -3.14476e+00  1.05945e+00  3.10987e-01
       H -3.61727e+00  3.04024e-01  5.76166e-01
       H -2.22017e+00  1.02782e+00  6.70281e-01
       H -3.63068e+00  1.92206e+00  5.02821e-01
4
# CELL(abcABC): 1000.00000  1000.00000  1000.00000    90.00000    90.00000    90.00000  Step:          68  Bead:       0 positions{angstrom}  cell{angstrom}
       O -3.14389e+00  1.06008e+00  3.11453e-01
       H -3.61653e+00  2.80191e-01  5.70588e-01
       H -2.23460e+00  1.04612e+00  6.59957e-01
       H -3.63069e+00  1.91757e+00  5.11329e-01
4
# CELL(abcABC): 1000.00000  1000.00000  1000.00000    90.00000    90.00000    90.00000  Step:          69  Bead:       0 positions{angstrom}  cell{angstrom}
       O -3.14291e+00  1.06107e+00  3.11814e-01
       H -3.61715e+00  2.54089e-01  5.66930e-01
       H -2.25106e+00  1.06429e+00  6.49887e-01
       H -3.62922e+00  1.90969e+00  5.19311e-01
4
# CELL(abcABC): 1000.00000  1000.00000  1000.00000    90.00000    90.00000    90.00000  Step:          70  Bead:       0 positions{angstrom}  cell{angstrom}
       O -3.14224e+00  1.06202e+00  3.12242e-01
       H -3.61692e+00  2.30179e-01  5.61910e-01
       H -2.26622e+00  1.08285e+00  6.39788e-01
       H -3.62497e+00  1.90005e+00  5.27650e-01
4
# CELL(abcABC): 1000.00000  1000.00000  1000.00000    90.00000    90.00000    90.00000  Step:          71  Bead:       0 positions{angstrom}  cell{angstrom}
       O -3.14186e+00  1.06297e+00  3.12764e-01
       H -3.61579e+00  2.08569e-01  5.54582e-01
       H -2.27819e+00  1.10038e+00  6.30402e-01
       H -3.62006e+00  1.88899e+00  5.36068e-01
4
# CELL(abcABC): 1000.00000  1000.00000  1000.00000    90.00000    90.00000    90.00000  Step:          72  Bead:       0 positions{angstrom}  cell{angstrom}
       O -3.14202e+00  1.06362e+00  3.13222e-01
       H -3.61192e+00  1.91977e-01  5.46329e-01
       H -2.28408e+00  1.11749e+00  6.23700e-01
       H -3.61548e+00  1.87819e+00  5.43755e-01
4
# CELL(abcABC): 1000.00000  1000.00000  1000.00000    90.00000    90.00000    90.00000  Step:          73  Bead:       0 positions{angstrom}  cell{angstrom}
       O -3.14269e+00  1.06399e+00  3.13703e-01
       H -3.60536e+00  1.80767e-01  5.36644e-01
       H -2.28295e+00  1.13430e+00  6.19338e-01
       H -3.61253e+00  1.86672e+00  5.50171e-01
4
# CELL(abcABC): 1000.00000  1000.00000  1000.00000    90.00000    90.00000    90.00000  Step:          74  Bead:       0 positions{angstrom}  cell{angstrom}
       O -3.14389e+00  1.06392e+00  3.14284e-01
       H -3.59549e+00  1.75453e-01  5.24449e-01
       H -2.27500e+00  1.15038e+00  6.16005e-01
       H -3.61130e+00  1.85708e+00  5.56474e-01
4
# CELL(abcABC): 1000.00000  1000.00000  1000.00000    90.00000    90.00000    90.00000  Step:          75  Bead:       0 positions{angstrom}  cell{angstrom}
       O -3.14529e+00  1.06349e+00  3.14817e-01
       H -3.58329e+00  1.74704e-01  5.10715e-01
       H -2.26227e+00  1.16486e+00  6.15069e-01
       H -3.61407e+00  1.85019e+00  5.62684e-01
4
# CELL(abcABC): 1000.00000  1000.00000  1000.00000    90.00000    90.00000    90.00000  Step:          76  Bead:       0 positions{angstrom}  cell{angstrom}
       O -3.14693e+00  1.06258e+00  3.15198e-01
       H -3.56781e+00  1.79062e-01  4.97400e-01
       H -2.24654e+00  1.17810e+00  6.15102e-01
       H -3.61918e+00  1.84704e+00  5.69913e-01
4
# CELL(abcABC): 1000.00000  1000.00000  1000.00000    90.00000    90.00000    90.00000  Step:          77  Bead:       0 positions{angstrom}  cell{angstrom}
       O -3.14846e+00  1.06140e+00  3.15541e-01
       H -3.55066e+00  1.87934e-01  4.83851e-01
       H -2.23061e+00  1.19000e+00  6.15803e-01
       H -3.62805e+00  1.84497e+00  5.77318e-01
4
# CELL(abcABC): 1000.00000  1000.00000  1000.00000    90.00000    90.00000    90.00000  Step:          78  Bead:       0 positions{angstrom}  cell{angstrom}
       O -3.14971e+00  1.06017e+00  3.16069e-01
       H -3.53385e+00  1.97854e-01  4.69607e-01
       H -2.21536e+00  1.20056e+00  6.15601e-01
       H -3.64024e+00  1.84396e+00  5.83381e-01
4
# CELL(abcABC): 1000.00000  1000.00000  1000.00000    90.00000    90.00000    90.00000  Step:          79  Bead:       0 positions{angstrom}  cell{angstrom}
       O -3.15066e+00  1.05920e+00  3.16608e-01
       H -3.51793e+00  2.07771e-01  4.57342e-01
       H -2.20209e+00  1.20799e+00  6.13986e-01
       H -3.65446e+00  1.84202e+00  5.88717e-01
4
# CELL(abcABC): 1000.00000  1000.00000  1000.00000    90.00000    90.00000    90.00000  Step:          80  Bead:       0 positions{angstrom}  cell{angstrom}
       O -3.15121e+00  1.05862e+00  3.17092e-01
       H -3.50293e+00  2.15041e-01  4.46220e-01
       H -2.19292e+00  1.21270e+00  6.11829e-01
       H -3.66986e+00  1.83930e+00  5.94305e-01
4
# CELL(abcABC): 1000.00000  1000.00000  1000.00000    90.00000    90.00000    90.00000  Step:          81  Bead:       0 positions{angstrom}  cell{angstrom}
       O -3.15127e+00  1.05845e+00  3.17699e-01
       H -3.48802e+00  2.18104e-01  4.35915e-01
       H -2.18961e+00  1.21678e+00  6.08076e-01
       H -3.68709e+00  1.83479e+00  5.98733e-01
4
# CELL(abcABC): 1000.00000  1000.00000  1000.00000    90.00000    90.00000    90.00000  Step:          82  Bead:       0 positions{angstrom}  cell{angstrom}
       O -3.15076e+00  1.05910e+00  3.18272e-01
       H -3.47523e+00  2.13933e-01  4.27959e-01
       H -2.19144e+00  1.21730e+00  6.02458e-01
       H -3.70621e+00  1.82812e+00  6.03212e-01
4
# CELL(abcABC): 1000.00000  1000.00000  1000.00000    90.00000    90.00000    90.00000  Step:          83  Bead:       0 positions{angstrom}  cell{angstrom}
       O -3.14975e+00  1.06038e+00  3.18911e-01
       H -3.46519e+00  2.03388e-01  4.21923e-01
       H -2.19847e+00  1.21614e+00  5.95199e-01
       H -3.72511e+00  1.81951e+00  6.06364e-01
4
# CELL(abcABC): 1000.00000  1000.00000  1000.00000    90.00000    90.00000    90.00000  Step:          84  Bead:       0 positions{angstrom}  cell{angstrom}
       O -3.14832e+00  1.06227e+00  3.19648e-01
       H -3.45638e+00  1.86512e-01  4.16083e-01
       H -2.21086e+00  1.21351e+00  5.86488e-01
       H -3.74425e+00  1.80906e+00  6.09210e-01
4
# CELL(abcABC): 1000.00000  1000.00000  1000.00000    90.00000    90.00000    90.00000  Step:          85  Bead:       0 positions{angstrom}  cell{angstrom}