6
# CELL(abcABC): 1000.00000  1000.00000  1000.00000    90.00000    90.00000    90.00000  Step:         515  Bead:       0 positions{angstrom}  cell{angstrom}
       C -7.39971e-01  3.06978e+00 -5.93219e-01
       H -1.24566e+00  3.69683e+00 -1.36725e+00
       H  1.77560e-01  3.60732e+00 -3.20168e-01
       H -4.73444e-01  2.16156e+00 -1.13514e+00
       O -1.51566e+00  2.88664e+00  5.27941e-01
       H -2.09260e+00  2.97468e+00  1.19747e+00
