4
# CELL(abcABC): 1000.00000  1000.00000  1000.00000    90.00000    90.00000    90.00000  Step:           0  Bead:       0 positions{angstrom}  cell{angstrom}
       O -3.14594e+00  1.06110e+00  3.70202e-01
       H -2.86850e+00  1.83285e-01  6.15555e-02
       H -2.57117e+00  1.76102e+00  5.71547e-02
       H -4.00960e+00  1.28313e+00  6.90569e-01
4
# CELL(abcABC): 1000.00000  1000.00000  1000.00000    90.00000    90.00000    90.00000  Step:           1  Bead:       0 positions{angstrom}  cell{angstrom}
       O -3.14424e+00  1.06136e+00  3.69651e-01
       H -2.87829e+00  1.76337e-01  6.57772e-02
       H -2.57031e+00  1.76069e+00  5.78993e-02
       H -4.02760e+00  1.28635e+00  6.94345e-01
4
# CELL(abcABC): 1000.00000  1000.00000  1000.00000    90.00000    90.00000    90.00000  Step:           2  Bead:       0 positions{angstrom}  cell{angstrom}
       O -3.14271e+00  1.06153e+00  3.69124e-01
       H -2.88836e+00  1.70377e-01  7.04578e-02
       H -2.56630e+00  1.76108e+00  5.77271e-02
       H -4.04595e+00  1.28922e+00  6.98211e-01
4
# CELL(abcABC): 1000.00000  1000.00000  1000.00000    90.00000    90.00000    90.00000  Step:           3  Bead:       0 positions{angstrom}  cell{angstrom}
       O -3.14128e+00  1.06169e+00  3.68584e-01
       H -2.89789e+00  1.64165e-01  7.68497e-02
       H -2.56112e+00  1.76314e+00  5.73448e-02
       H -4.06429e+00  1.29078e+00  7.00767e-01
4
# CELL(abcABC): 1000.00000  1000.00000  1000.00000    90.00000    90.00000    90.00000  Step:           4  Bead:       0 positions{angstrom}  cell{angstrom}
       O -3.14007e+00  1.06189e+00  3.68213e-01
       H -2.90751e+00  1.57793e-01  8.20558e-02
       H -2.55413e+00  1.76612e+00  5.58399e-02
       H -4.08079e+00  1.29094e+00  7.02958e-01
4
# CELL(abcABC): 1000.00000  1000.00000  1000.00000    90.00000    90.00000    90.00000  Step:           5  Bead:       0 positions{angstrom}  cell{angstrom}
       O -3.13900e+00  1.06201e+00  3.67981e-01
       H -2.91765e+00  1.52647e-01  8.68837e-02
       H -2.54706e+00  1.76998e+00  5.49271e-02
       H -4.09474e+00  1.29033e+00  7.02728e-01
4
# CELL(abcABC): 1000.00000  1000.00000  1000.00000    90.00000    90.00000    90.00000  Step:           6  Bead:       0 positions{angstrom}  cell{angstrom}
       O -3.13806e+00  1.06227e+00  3.67887e-01
       H -2.92735e+00  1.49047e-01  9.05974e-02
       H -2.54040e+00  1.77140e+00  5.28736e-02
       H -4.10666e+00  1.28838e+00  7.02549e-01
4
# CELL(abcABC): 1000.00000  1000.00000  1000.00000    90.00000    90.00000    90.00000  Step:           7  Bead:       0 positions{angstrom}  cell{angstrom}
       O -3.13742e+00  1.06253e+00  3.67705e-01
       H -2.93507e+00  1.46746e-01  9.53665e-02
       H -2.53405e+00  1.77112e+00  5.16738e-02
       H -4.11546e+00  1.28694e+00  7.01881e-01
4
# CELL(abcABC): 1000.00000  1000.00000  1000.00000    90.00000    90.00000    90.00000  Step:           8  Bead:       0 positions{angstrom}  cell{angstrom}
       O -3.13713e+00  1.06290e+00  3.67673e-01
       H -2.94110e+00  1.45667e-01  9.91861e-02
       H -2.52710e+00  1.76820e+00  5.00559e-02
       H -4.12098e+00  1.28497e+00  7.00180e-01
4
# CELL(abcABC): 1000.00000  1000.00000  1000.00000    90.00000    90.00000    90.00000  Step:           9  Bead:       0 positions{angstrom}  cell{angstrom}
       O -3.13715e+00  1.06349e+00  3.67602e-01
       H -2.94622e+00  1.44828e-01  1.03791e-01
       H -2.51966e+00  1.76346e+00  4.93880e-02
       H -4.12290e+00  1.28126e+00  6.97378e-01
4
# CELL(abcABC): 1000.00000  1000.00000  1000.00000    90.00000    90.00000    90.00000  Step:          10  Bead:       0 positions{angstrom}  cell{angstrom}
       O -3.13745e+00  1.06413e+00  3.67731e-01
       H -2.95017e+00  1.44933e-01  1.07257e-01
       H -2.51271e+00  1.75731e+00  4.84275e-02
       H -4.12117e+00  1.27714e+00  6.92819e-01
4
# CELL(abcABC): 1000.00000  1000.00000  1000.00000    90.00000    90.00000    90.00000  Step:          11  Bead:       0 positions{angstrom}  cell{angstrom}
       O -3.13800e+00  1.06489e+00  3.68074e-01
       H -2.95267e+00  1.46617e-01  1.09002e-01
       H -2.50777e+00  1.74879e+00  4.75369e-02
       H -4.11480e+00  1.27179e+00  6.86514e-01
4
# CELL(abcABC): 1000.00000  1000.00000  1000.00000    90.00000    90.00000    90.00000  Step:          12  Bead:       0 positions{angstrom}  cell{angstrom}
       O -3.13895e+00  1.06582e+00  3.68562e-01
       H -2.95257e+00  1.48863e-01  1.09977e-01
       H -2.50359e+00  1.73725e+00  4.60805e-02
       H -4.10410e+00  1.26640e+00  6.79256e-01
4
# CELL(abcABC): 1000.00000  1000.00000  1000.00000    90.00000    90.00000    90.00000  Step:          13  Bead:       0 positions{angstrom}  cell{angstrom}
       O -3.14020e+00  1.06682e+00  3.69091e-01
       H -2.95110e+00  1.52349e-01  1.10810e-01
       H -2.49862e+00  1.72425e+00  4.49614e-02
       H -4.09069e+00  1.25999e+00  6.71139e-01
4
# CELL(abcABC): 1000.00000  1000.00000  1000.00000    90.00000    90.00000    90.00000  Step:          14  Bead:       0 positions{angstrom}  cell{angstrom}
       O -3.14172e+00  1.06783e+00  3.69627e-01
       H -2.94704e+00  1.56029e-01  1.11774e-01
       H -2.49342e+00  1.71110e+00  4.40506e-02
       H -4.07580e+00  1.25348e+00  6.62581e-01
4
# CELL(abcABC): 1000.00000  1000.00000  1000.00000    90.00000    90.00000    90.00000  Step:          15  Bead:       0 positions{angstrom}  cell{angstrom}
       O -3.14332e+00  1.06870e+00  3.69962e-01
       H -2.94388e+00  1.59510e-01  1.14750e-01
       H -2.48894e+00  1.69834e+00  4.34993e-02
       H -4.05798e+00  1.24893e+00  6.54836e-01
4
# CELL(abcABC): 1000.00000  1000.00000  1000.00000    90.00000    90.00000    90.00000  Step:          16  Bead:       0 positions{angstrom}  cell{angstrom}
       O -3.14504e+00  1.06943e+00  3.70281e-01
       H -2.93881e+00  1.62674e-01  1.17346e-01
       H -2.48456e+00  1.68715e+00  4.30939e-02
       H -4.04017e+00  1.24545e+00  6.47587e-01
4
# CELL(abcABC): 1000.00000  1000.00000  1000.00000    90.00000    90.00000    90.00000  Step:          17  Bead:       0 positions{angstrom}  cell{angstrom}
       O -3.14663e+00  1.07003e+00  3.70544e-01
       H -2.93236e+00  1.66145e-01  1.20217e-01
       H -2.48105e+00  1.67766e+00  4.17555e-02
       H -4.02484e+00  1.24195e+00  6.41873e-01
4
# CELL(abcABC): 1000.00000  1000.00000  1000.00000    90.00000    90.00000    90.00000  Step:          18  Bead:       0 positions{angstrom}  cell{angstrom}
       O -3.14805e+00  1.07038e+00  3.70725e-01
       H -2.92648e+00  1.70050e-01  1.23379e-01
       H -2.47625e+00  1.66962e+00  4.03153e-02
       H -4.01307e+00  1.24041e+00  6.37283e-01
4
# CELL(abcABC): 1000.00000  1000.00000  1000.00000    90.00000    90.00000    90.00000  Step:          19  Bead:       0 positions{angstrom}  cell{angstrom}
       O -3.14932e+00  1.07063e+00  3.70784e-01
       H -2.91984e+00  1.73081e-01  1.27111e-01
       H -2.47214e+00  1.66265e+00  3.82067e-02
       H -4.00369e+00  1.24046e+00  6.34718e-01
4
# CELL(abcABC): 1000.00000  1000.00000  1000.00000    90.00000    90.00000    90.00000  Step:          20  Bead:       0 positions{angstrom}  cell{angstrom}
       O -3.15026e+00  1.07076e+00  3.70781e-01
       H -2.91290e+00  1.75531e-01  1.29540e-01
       H -2.46899e+00  1.65754e+00  3.63633e-02
       H -3.99875e+00  1.24102e+00  6.34181e-01
4
# CELL(abcABC): 1000.00000  1000.00000  1000.00000    90.00000    90.00000    90.00000  Step:          21  Bead:       0 positions{angstrom}  cell{angstrom}
       O -3.15093e+00  1.07074e+00  3.70727e-01
       H -2.90630e+00  1.76263e-01  1.30847e-01
       H -2.46431e+00  1.65483e+00  3.55278e-02
       H -3.99947e+00  1.24334e+00  6.34572e-01
4
# CELL(abcABC): 1000.00000  1000.00000  1000.00000    90.00000    90.00000    90.00000  Step:          22  Bead:       0 positions{angstrom}  cell{angstrom}
       O -3.15129e+00  1.07050e+00  3.70648e-01
       H -2.90089e+00  1.74933e-01  1.33164e-01
       H -2.45773e+00  1.65411e+00  3.32544e-02
       H -4.00567e+00  1.24920e+00  6.35780e-01
4
# CELL(abcABC): 1000.00000  1000.00000  1000.00000    90.00000    90.00000    90.00000  Step:          23  Bead:       0 positions{angstrom}  cell{angstrom}
       O -3.15134e+00  1.07013e+00  3.70642e-01
       H -2.89558e+00  1.73143e-01  1.35040e-01
       H -2.45084e+00  1.65524e+00  3.17401e-02
       H -4.01715e+00  1.25575e+00  6.35514e-01
4
# CELL(abcABC): 1000.00000  1000.00000  1000.00000    90.00000    90.00000    90.00000  Step:          24  Bead:       0 positions{angstrom}  cell{angstrom}
       O -3.15109e+00  1.06957e+00  3.70537e-01
       H -2.89007e+00  1.69628e-01  1.37013e-01
       H -2.44455e+00  1.65833e+00  3.10777e-02
       H -4.03283e+00  1.26506e+00  6.35875e-01
4
# CELL(abcABC): 1000.00000  1000.00000  1000.00000    90.00000    90.00000    90.00000  Step:          25  Bead:       0 positions{angstrom}  cell{angstrom}
       O -3.15054e+00  1.06903e+00  3.70240e-01
       H -2.88516e+00  1.64821e-01  1.40063e-01
       H -2.44008e+00  1.66114e+00  3.14345e-02
       H -4.05106e+00  1.27560e+00  6.37187e-01
4
# CELL(abcABC): 1000.00000  1000.00000  1000.00000    90.00000    90.00000    90.00000  Step:          26  Bead:       0 positions{angstrom}  cell{angstrom}
       O -3.14976e+00  1.06853e+00  3.69824e-01
       H -2.88092e+00  1.59556e-01  1.42791e-01
       H -2.43704e+00  1.66362e+00  3.25625e-02
       H -4.07068e+00  1.28631e+00  6.39924e-01
4
# CELL(abcABC): 1000.00000  1000.00000  1000.00000    90.00000    90.00000    90.00000  Step:          27  Bead:       0 positions{angstrom}  cell{angstrom}
       O -3.14895e+00  1.06798e+00  3.69355e-01
       H -2.87764e+00  1.55961e-01  1.45328e-01
       H -2.43585e+00  1.66493e+00  3.43809e-02
       H -4.08805e+00  1.29730e+00  6.43022e-01
4
# CELL(abcABC): 1000.00000  1000.00000  1000.00000    90.00000    90.00000    90.00000  Step:          28  Bead:       0 positions{angstrom}  cell{angstrom}
       O -3.14802e+00  1.06741e+00  3.68760e-01
       H -2.87624e+00  1.51860e-01  1.48216e-01
       H -2.43593e+00  1.66591e+00  3.74501e-02
       H -4.10416e+00  1.30945e+00  6.46506e-01
4
# CELL(abcABC): 1000.00000  1000.00000  1000.00000    90.00000    90.00000    90.00000  Step:          29  Bead:       0 positions{angstrom}  cell{angstrom}
       O -3.14712e+00  1.06678e+00  3.68138e-01
       H -2.87497e+00  1.49375e-01  1.50184e-01
       H -2.43865e+00  1.66637e+00  4.14188e-02
       H -4.11691e+00  1.32156e+00  6.50447e-01
4
# CELL(abcABC): 1000.00000  1000.00000  1000.00000    90.00000    90.00000    90.00000  Step:          30  Bead:       0 positions{angstrom}  cell{angstrom}
       O -3.14631e+00  1.06600e+00  3.67460e-01
       H -2.87412e+00  1.49314e-01  1.53375e-01
       H -2.44303e+00  1.66646e+00  4.65252e-02
       H -4.12630e+00  1.33390e+00  6.52900e-01
4
# CELL(abcABC): 1000.00000  1000.00000  1000.00000    90.00000    90.00000    90.00000  Step:          31  Bead:       0 positions{angstrom}  cell{angstrom}
       O -3.14578e+00  1.06507e+00  3.66851e-01
       H -2.87240e+00  1.50667e-01  1.57141e-01
       H -2.44776e+00  1.66765e+00  5.14807e-02
       H -4.13169e+00  1.34613e+00  6.53846e-01
4
# CELL(abcABC): 1000.00000  1000.00000  1000.00000    90.00000    90.00000    90.00000  Step:          32  Bead:       0 positions{angstrom}  cell{angstrom}
       O -3.14543e+00  1.06421e+00  3.66098e-01
       H -2.87217e+00  1.51057e-01  1.61803e-01
       H -2.45255e+00  1.67032e+00  5.79228e-02
       H -4.13270e+00  1.35670e+00  6.54704e-01
4
# CELL(abcABC): 1000.00000  1000.00000  1000.00000    90.00000    90.00000    90.00000  Step:          33  Bead:       0 positions{angstrom}  cell{angstrom}
       O -3.14530e+00  1.06348e+00  3.65292e-01
       H -2.87297e+00  1.51336e-01  1.67870e-01
       H -2.45721e+00  1.67242e+00  6.49587e-02
       H -4.12922e+00  1.36585e+00  6.54395e-01
4
# CELL(abcABC): 1000.00000  1000.00000  1000.00000    90.00000    90.00000    90.00000  Step:          34  Bead:       0 positions{angstrom}  cell{angstrom}
       O -3.14531e+00  1.06282e+00  3.64662e-01
       H -2.87370e+00  1.51642e-01  1.73813e-01
       H -2.46354e+00  1.67461e+00  7.22511e-02
       H -4.12199e+00  1.37383e+00  6.51151e-01
4
# CELL(abcABC): 1000.00000  1000.00000  1000.00000    90.00000    90.00000    90.00000  Step:          35  Bead:       0 positions{angstrom}  cell{angstrom}
       O -3.14565e+00  1.06217e+00  3.64140e-01
       H -2.87298e+00  1.51753e-01  1.78890e-01
       H -2.47046e+00  1.67858e+00  7.99140e-02
       H -4.11040e+00  1.38005e+00  6.46694e-01
4
# CELL(abcABC): 1000.00000  1000.00000  1000.00000    90.00000    90.00000    90.00000  Step:          36  Bead:       0 positions{angstrom}  cell{angstrom}
       O -3.14632e+00  1.06149e+00  3.63761e-01
       H -2.87219e+00  1.51568e-01  1.83185e-01
       H -2.47621e+00  1.68493e+00  8.62426e-02
       H -4.09477e+00  1.38482e+00  6.42094e-01
4
# CELL(abcABC): 1000.00000  1000.00000  1000.00000    90.00000    90.00000    90.00000  Step:          37  Bead:       0 positions{angstrom}  cell{angstrom}
       O -3.14734e+00  1.06091e+00  3.63394e-01
       H -2.87088e+00  1.51780e-01  1.88873e-01
       H -2.48027e+00  1.69171e+00  9.15027e-02
       H -4.07594e+00  1.38701e+00  6.36965e-01
4
# CELL(abcABC): 1000.00000  1000.00000  1000.00000    90.00000    90.00000    90.00000  Step:          38  Bead:       0 positions{angstrom}  cell{angstrom}
       O -3.14843e+00  1.06040e+00  3.63301e-01
       H -2.87061e+00  1.51228e-01  1.92945e-01
       H -2.48305e+00  1.69814e+00  9.59056e-02
       H -4.05611e+00  1.38918e+00  6.29971e-01
4
# CELL(abcABC): 1000.00000  1000.00000  1000.00000    90.00000    90.00000    90.00000  Step:          39  Bead:       0 positions{angstrom}  cell{angstrom}
       O -3.14985e+00  1.06010e+00  3.63189e-01
       H -2.86963e+00  1.49517e-01  1.97069e-01
       H -2.48427e+00  1.70381e+00  1.00696e-01
       H -4.03327e+00  1.39000e+00  6.22831e-01
4
# CELL(abcABC): 1000.00000  1000.00000  1000.00000    90.00000    90.00000    90.00000  Step:          40  Bead:       0 positions{angstrom}  cell{angstrom}
       O -3.15139e+00  1.05983e+00  3.62938e-01
       H -2.86870e+00  1.47550e-01  2.01735e-01
       H -2.48423e+00  1.70964e+00  1.06731e-01
       H -4.00983e+00  1.39043e+00  6.16119e-01
4
# CELL(abcABC): 1000.00000  1000.00000  1000.00000    90.00000    90.00000    90.00000  Step:          41  Bead:       0 positions{angstrom}  cell{angstrom}
       O -3.15288e+00  1.05959e+00  3.62630e-01
       H -2.86821e+00  1.46118e-01  2.05608e-01
       H -2.48278e+00  1.71542e+00  1.12866e-01
       H -3.98814e+00  1.38988e+00  6.11002e-01
4
# CELL(abcABC): 1000.00000  1000.00000  1000.00000    90.00000    90.00000    90.00000  Step:          42  Bead:       0 positions{angstrom}  cell{angstrom}
       O -3.15430e+00  1.05953e+00  3.62321e-01
       H -2.86645e+00  1.42771e-01  2.08819e-01
       H -2.48059e+00  1.72036e+00  1.19337e-01
       H -3.96951e+00  1.38929e+00  6.06216e-01
4
# CELL(abcABC): 1000.00000  1000.00000  1000.00000    90.00000    90.00000    90.00000  Step:          43  Bead:       0 positions{angstrom}  cell{angstrom}
       O -3.15540e+00  1.05941e+00  3.61930e-01
       H -2.86525e+00  1.40571e-01  2.11417e-01
       H -2.47810e+00  1.72535e+00  1.26165e-01
       H -3.95580e+00  1.38830e+00  6.03005e-01
4
# CELL(abcABC): 1000.00000  1000.00000  1000.00000    90.00000    90.00000    90.00000  Step:          44  Bead:       0 positions{angstrom}  cell{angstrom}
       O -3.15604e+00  1.05933e+00  3.61408e-01
       H -2.86420e+00  1.38274e-01  2.13172e-01
       H -2.47566e+00  1.72825e+00  1.32769e-01
       H -3.94902e+00  1.38902e+00  6.02927e-01
4
# CELL(abcABC): 1000.00000  1000.00000  1000.00000    90.00000    90.00000    90.00000  Step:          45  Bead:       0 positions{angstrom}  cell{angstrom}
       O -3.15611e+00  1.05925e+00  3.60801e-01
       H -2.86410e+00  1.36930e-01  2.14080e-01
       H -2.47284e+00  1.72861e+00  1.38861e-01
       H -3.95082e+00  1.39120e+00  6.05568e-01
4
# CELL(abcABC): 1000.00000  1000.00000  1000.00000    90.00000    90.00000    90.00000  Step:          46  Bead:       0 positions{angstrom}  cell{angstrom}
       O -3.15576e+00  1.05919e+00  3.60089e-01
       H -2.86445e+00  1.37134e-01  2.14383e-01
       H -2.47052e+00  1.72613e+00  1.44754e-01
       H -3.95836e+00  1.39448e+00  6.10667e-01
4
# CELL(abcABC): 1000.00000  1000.00000  1000.00000    90.00000    90.00000    90.00000  Step:          47  Bead:       0 positions{angstrom}  cell{angstrom}
       O -3.15500e+00  1.05902e+00  3.59392e-01
       H -2.86505e+00  1.37926e-01  2.14747e-01
       H -2.46829e+00  1.72201e+00  1.49955e-01
       H -3.97212e+00  1.40047e+00  6.16168e-01
4
# CELL(abcABC): 1000.00000  1000.00000  1000.00000    90.00000    90.00000    90.00000  Step:          48  Bead:       0 positions{angstrom}  cell{angstrom}
       O -3.15395e+00  1.05898e+00  3.58615e-01
       H -2.86531e+00  1.38344e-01  2.15189e-01
       H -2.46610e+00  1.71687e+00  1.54453e-01
       H -3.99076e+00  1.40591e+00  6.23555e-01
4
# CELL(abcABC): 1000.00000  1000.00000  1000.00000    90.00000    90.00000    90.00000  Step:          49  Bead:       0 positions{angstrom}  cell{angstrom}
       O -3.15280e+00  1.05899e+00  3.57700e-01
       H -2.86554e+00  1.38783e-01  2.15963e-01
       H -2.46245e+00  1.71016e+00  1.58954e-01
       H -4.01239e+00  1.41193e+00  6.32811e-01
4
# CELL(abcABC): 1000.00000  1000.00000  1000.00000    90.00000    90.00000    90.00000  Step:          50  Bead:       0 positions{angstrom}  cell{angstrom}
       O -3.15147e+00  1.05916e+00  3.56901e-01
       H -2.86609e+00  1.39655e-01  2.16183e-01
       H -2.45998e+00  1.70184e+00  1.63282e-01
       H -4.03535e+00  1.41673e+00  6.40946e-01
4
# CELL(abcABC): 1000.00000  1000.00000  1000.00000    90.00000    90.00000    90.00000  Step:          51  Bead:       0 positions{angstrom}  cell{angstrom}
       O -3.15027e+00  1.05941e+00  3.56176e-01
       H -2.86697e+00  1.40239e-01  2.15669e-01
       H -2.45687e+00  1.69349e+00  1.67019e-01
       H -4.05665e+00  1.42054e+00  6.49224e-01
4
# CELL(abcABC): 1000.00000  1000.00000  1000.00000    90.00000    90.00000    90.00000  Step:          52  Bead:       0 positions{angstrom}  cell{angstrom}
       O -3.14926e+00  1.05984e+00  3.55659e-01
       H -2.86823e+00  1.40593e-01  2.14855e-01
       H -2.45268e+00  1.68481e+00  1.69005e-01
       H -4.07560e+00  1.42203e+00  6.56259e-01
4
# CELL(abcABC): 1000.00000  1000.00000  1000.00000    90.00000    90.00000    90.00000  Step:          53  Bead:       0 positions{angstrom}  cell{angstrom}
       O -3.14856e+00  1.06032e+00  3.55231e-01
       H -2.86893e+00  1.41384e-01  2.12830e-01
       H -2.44713e+00  1.67829e+00  1.70894e-01
       H -4.09160e+00  1.42013e+00  6.63203e-01
4
# CELL(abcABC): 1000.00000  1000.00000  1000.00000    90.00000    90.00000    90.00000  Step:          54  Bead:       0 positions{angstrom}  cell{angstrom}
       O -3.14816e+00  1.06096e+00  3.54667e-01
       H -2.86977e+00  1.41148e-01  2.11631e-01
       H -2.44028e+00  1.67349e+00  1.72835e-01
       H -4.10391e+00  1.41497e+00  6.71409e-01
4
# CELL(abcABC): 1000.00000  1000.00000  1000.00000    90.00000    90.00000    90.00000  Step:          55  Bead:       0 positions{angstrom}  cell{angstrom}
       O -3.14816e+00  1.06170e+00  3.54189e-01
       H -2.87129e+00  1.40991e-01  2.11034e-01
       H -2.43175e+00  1.66988e+00  1.74819e-01
       H -4.11102e+00  1.40710e+00  6.77607e-01
4
# CELL(abcABC): 1000.00000  1000.00000  1000.00000    90.00000    90.00000    90.00000  Step:          56  Bead:       0 positions{angstrom}  cell{angstrom}
       O -3.14856e+00  1.06247e+00  3.53818e-01
       H -2.87073e+00  1.41103e-01  2.10941e-01
       H -2.42220e+00  1.66691e+00  1.75223e-01
       H -4.11474e+00  1.39769e+00  6.83186e-01
4
# CELL(abcABC): 1000.00000  1000.00000  1000.00000    90.00000    90.00000    90.00000  Step:          57  Bead:       0 positions{angstrom}  cell{angstrom}
       O -3.14927e+00  1.06328e+00  3.53492e-01
       H -2.86868e+00  1.41904e-01  2.11357e-01
       H -2.41308e+00  1.66411e+00  1.76320e-01
       H -4.11470e+00  1.38687e+00  6.86846e-01
4
# CELL(abcABC): 1000.00000  1000.00000  1000.00000    90.00000    90.00000    90.00000  Step:          58  Bead:       0 positions{angstrom}  cell{angstrom}
       O -3.15032e+00  1.06421e+00  3.53250e-01
       H -2.86563e+00  1.42134e-01  2.11683e-01
       H -2.40348e+00  1.66162e+00  1.77968e-01
       H -4.11057e+00  1.37437e+00  6.88713e-01
4
# CELL(abcABC): 1000.00000  1000.00000  1000.00000    90.00000    90.00000    90.00000  Step:          59  Bead:       0 positions{angstrom}  cell{angstrom}
       O -3.15166e+00  1.06516e+00  3.52958e-01
       H -2.86180e+00  1.42839e-01  2.12265e-01
       H -2.39400e+00  1.65966e+00  1.81364e-01
       H -4.10262e+00  1.36049e+00  6.89372e-01
4
# CELL(abcABC): 1000.00000  1000.00000  1000.00000    90.00000    90.00000    90.00000  Step:          60  Bead:       0 positions{angstrom}  cell{angstrom}
       O -3.15321e+00  1.06622e+00  3.52758e-01
       H -2.85925e+00  1.43705e-01  2.13163e-01
       H -2.38470e+00  1.65682e+00  1.83569e-01
       H -4.08998e+00  1.34557e+00  6.89440e-01
4
# CELL(abcABC): 1000.00000  1000.00000  1000.00000    90.00000    90.00000    90.00000  Step:          61  Bead:       0 positions{angstrom}  cell{angstrom}
       O -3.15493e+00  1.06738e+00  3.52610e-01
       H -2.85617e+00  1.44706e-01  2.14091e-01
       H -2.37564e+00  1.65321e+00  1.85028e-01
       H -4.07468e+00  1.32981e+00  6.89407e-01
4
# CELL(abcABC): 1000.00000  1000.00000  1000.00000    90.00000    90.00000    90.00000  Step:          62  Bead:       0 positions{angstrom}  cell{angstrom}
       O -3.15658e+00  1.06866e+00  3.52589e-01
       H -2.85441e+00  1.45685e-01  2.14903e-01
       H -2.36980e+00  1.64835e+00  1.86650e-01
       H -4.05614e+00  1.31342e+00  6.87304e-01
4
# CELL(abcABC): 1000.00000  1000.00000  1000.00000    90.00000    90.00000    90.00000  Step:          63  Bead:       0 positions{angstrom}  cell{angstrom}
       O -3.15806e+00  1.06983e+00  3.52378e-01
       H -2.85304e+00  1.48610e-01  2.16551e-01
       H -2.36668e+00  1.64195e+00  1.88816e-01
       H -4.03724e+00  1.29834e+00  6.86842e-01
4
# CELL(abcABC): 1000.00000  1000.00000  1000.00000    90.00000    90.00000    90.00000  Step:          64  Bead:       0 positions{angstrom}  cell{angstrom}
       O -3.15935e+00  1.07095e+00  3.52057e-01
       H -2.85126e+00  1.52756e-01  2.19548e-01
       H -2.36567e+00  1.63475e+00  1.91727e-01
       H -4.01950e+00  1.28365e+00  6.86032e-01
4
# CELL(abcABC): 1000.00000  1000.00000  1000.00000    90.00000    90.00000    90.00000  Step:          65  Bead:       0 positions{angstrom}  cell{angstrom}
       O -3.16034e+00  1.07191e+00  3.51656e-01
       H -2.85117e+00  1.58291e-01  2.21784e-01
       H -2.36628e+00  1.62860e+00  1.95162e-01
       H -4.00317e+00  1.26888e+00  6.86725e-01
4
# CELL(abcABC): 1000.00000  1000.00000  1000.00000    90.00000    90.00000    90.00000  Step:          66  Bead:       0 positions{angstrom}  cell{angstrom}
       O -3.16098e+00  1.07266e+00  3.51029e-01
       H -2.85209e+00  1.66819e-01  2.24944e-01
       H -2.36874e+00  1.62126e+00  1.99548e-01
       H -3.98967e+00  1.25586e+00  6.89130e-01
4
# CELL(abcABC): 1000.00000  1000.00000  1000.00000    90.00000    90.00000    90.00000  Step:          67  Bead:       0 positions{angstrom}  cell{angstrom}
       O -3.16114e+00  1.07335e+00  3.50243e-01
       H -2.85351e+00  1.74145e-01  2.27378e-01
       H -2.37210e+00  1.61495e+00  2.05002e-01
       H -3.98237e+00  1.24393e+00  6.93712e-01
4
# CELL(abcABC): 1000.00000  1000.00000  1000.00000    90.00000    90.00000    90.00000  Step:          68  Bead:       0 positions{angstrom}  cell{angstrom}
       O -3.16093e+00  1.07386e+00  3.49445e-01
       H -2.85486e+00  1.80042e-01  2.29431e-01
       H -2.37584e+00  1.61034e+00  2.09302e-01
       H -3.98065e+00  1.23457e+00  7.00023e-01
4
# CELL(abcABC): 1000.00000  1000.00000  1000.00000    90.00000    90.00000    90.00000  Step:          69  Bead:       0 positions{angstrom}  cell{angstrom}
       O -3.16031e+00  1.07435e+00  3.48326e-01
       H -2.85691e+00  1.82446e-01  2.32872e-01
       H -2.38027e+00  1.60810e+00  2.14805e-01
       H -3.98406e+00  1.22654e+00  7.08855e-01
4
# CELL(abcABC): 1000.00000  1000.00000  1000.00000    90.00000    90.00000    90.00000  Step:          70  Bead:       0 positions{angstrom}  cell{angstrom}
       O -3.15958e+00  1.07458e+00  3.47097e-01
       H -2.85873e+00  1.82991e-01  2.35032e-01
       H -2.38375e+00  1.60946e+00  2.20189e-01
       H -3.99021e+00  1.22097e+00  7.20809e-01
4
# CELL(abcABC): 1000.00000  1000.00000  1000.00000    90.00000    90.00000    90.00000  Step:          71  Bead:       0 positions{angstrom}  cell{angstrom}
       O -3.15866e+00  1.07476e+00  3.45860e-01
       H -2.86124e+00  1.79736e-01  2.35360e-01
       H -2.38646e+00  1.61348e+00  2.25206e-01
       H -3.99961e+00  1.21737e+00  7.35098e-01
4
# CELL(abcABC): 1000.00000  1000.00000  1000.00000    90.00000    90.00000    90.00000  Step:          72  Bead:       0 positions{angstrom}  cell{angstrom}
       O -3.15773e+00  1.07470e+00  3.44536e-01
       H -2.86333e+00  1.74289e-01  2.35489e-01
       H -2.38751e+00  1.62088e+00  2.31003e-01
       H -4.01123e+00  1.21638e+00  7.50188e-01
4
# CELL(abcABC): 1000.00000  1000.00000  1000.00000    90.00000    90.00000    90.00000  Step:          73  Bead:       0 positions{angstrom}  cell{angstrom}
       O -3.15679e+00  1.07452e+00  3.43282e-01
       H -2.86549e+00  1.66763e-01  2.34999e-01
       H -2.38724e+00  1.63162e+00  2.36883e-01
       H -4.02430e+00  1.21596e+00  7.64708e-01
4
# CELL(abcABC): 1000.00000  1000.00000  1000.00000    90.00000    90.00000    90.00000  Step:          74  Bead:       0 positions{angstrom}  cell{angstrom}
       O -3.15595e+00  1.07414e+00  3.42221e-01
       H -2.86730e+00  1.58176e-01  2.32776e-01
       H -2.38614e+00  1.64477e+00  2.41707e-01
       H -4.03686e+00  1.21748e+00  7.78948e-01
4
# CELL(abcABC): 1000.00000  1000.00000  1000.00000    90.00000    90.00000    90.00000  Step:          75  Bead:       0 positions{angstrom}  cell{angstrom}
       O -3.15505e+00  1.07365e+00  3.41225e-01
       H -2.86961e+00  1.48366e-01  2.29630e-01
       H -2.38550e+00  1.65889e+00  2.47458e-01
       H -4.04952e+00  1.22091e+00  7.92148e-01
4
# CELL(abcABC): 1000.00000  1000.00000  1000.00000    90.00000    90.00000    90.00000  Step:          76  Bead:       0 positions{angstrom}  cell{angstrom}
       O -3.15433e+00  1.07290e+00  3.40194e-01
       H -2.87116e+00  1.39552e-01  2.27289e-01
       H -2.38558e+00  1.67380e+00  2.53514e-01
       H -4.05938e+00  1.22678e+00  8.04810e-01
4
# CELL(abcABC): 1000.00000  1000.00000  1000.00000    90.00000    90.00000    90.00000  Step:          77  Bead:       0 positions{angstrom}  cell{angstrom}
       O -3.15361e+00  1.07199e+00  3.39229e-01
       H -2.87291e+00  1.33224e-01  2.24779e-01
       H -2.38734e+00  1.68885e+00  2.60419e-01
       H -4.06722e+00  1.23248e+00  8.15723e-01
4
# CELL(abcABC): 1000.00000  1000.00000  1000.00000    90.00000    90.00000    90.00000  Step:          78  Bead:       0 positions{angstrom}  cell{angstrom}
       O -3.15294e+00  1.07100e+00  3.38550e-01
       H -2.87590e+00  1.28330e-01  2.21213e-01
       H -2.38996e+00  1.70359e+00  2.67298e-01
       H -4.07237e+00  1.23837e+00  8.23192e-01
4
# CELL(abcABC): 1000.00000  1000.00000  1000.00000    90.00000    90.00000    90.00000  Step:          79  Bead:       0 positions{angstrom}  cell{angstrom}
       O -3.15241e+00  1.07006e+00  3.37976e-01
       H -2.87957e+00  1.26417e-01  2.18828e-01
       H -2.39329e+00  1.71579e+00  2.74151e-01
       H -4.07372e+00  1.24306e+00  8.27831e-01
4
# CELL(abcABC): 1000.00000  1000.00000  1000.00000    90.00000    90.00000    90.00000  Step:          80  Bead:       0 positions{angstrom}  cell{angstrom}
       O -3.15207e+00  1.06913e+00  3.37445e-01
       H -2.88274e+00  1.27284e-01  2.16366e-01
       H -2.39834e+00  1.72544e+00  2.82171e-01
       H -4.07082e+00  1.24728e+00  8.30712e-01
4
# CELL(abcABC): 1000.00000  1000.00000  1000.00000    90.00000    90.00000    90.00000  Step:          81  Bead:       0 positions{angstrom}  cell{angstrom}
       O -3.15191e+00  1.06811e+00  3.37133e-01
       H -2.88353e+00  1.31321e-01  2.13174e-01
       H -2.40604e+00  1.73432e+00  2.90428e-01
       H -4.06489e+00  1.25055e+00  8.30587e-01
4
# CELL(abcABC): 1000.00000  1000.00000  1000.00000    90.00000    90.00000    90.00000  Step:          82  Bead:       0 positions{angstrom}  cell{angstrom}
       O -3.15186e+00  1.06731e+00  3.36890e-01
       H -2.88316e+00  1.36622e-01  2.10586e-01
       H -2.41534e+00  1.73921e+00  2.98580e-01
       H -4.05673e+00  1.25295e+00  8.28884e-01
4
# CELL(abcABC): 1000.00000  1000.00000  1000.00000    90.00000    90.00000    90.00000  Step:          83  Bead:       0 positions{angstrom}  cell{angstrom}
       O -3.15198e+00  1.06658e+00  3.36813e-01
       H -2.88206e+00  1.43633e-01  2.08205e-01
       H -2.42626e+00  1.74183e+00  3.06598e-01
       H -4.04503e+00  1.25502e+00  8.24465e-01
4
# CELL(abcABC): 1000.00000  1000.00000  1000.00000    90.00000    90.00000    90.00000  Step:          84  Bead:       0 positions{angstrom}  cell{angstrom}
       O -3.15222e+00  1.06599e+00  3.36933e-01
       H -2.87900e+00  1.50456e-01  2.04497e-01
       H -2.43931e+00  1.74232e+00  3.14248e-01
       H -4.03120e+00  1.25703e+00  8.18629e-01
4
# CELL(abcABC): 1000.00000  1000.00000  1000.00000    90.00000    90.00000    90.00000  Step:          85  Bead:       0 positions{angstrom}  cell{angstrom}