4
# CELL(abcABC): 1000.00000  1000.00000  1000.00000    90.00000    90.00000    90.00000  Step:           0  Bead:       0 positions{angstrom}  cell{angstrom}
       O -3.11593e+00  1.06624e+00  3.39522e-01
       H -3.11407e+00  5.81407e-01  1.15265e+00
       H -3.26452e+00  1.98364e+00  5.32760e-01
       H -3.54692e+00  5.80700e-01 -3.89124e-01
4
# CELL(abcABC): 1000.00000  1000.00000  1000.00000    90.00000    90.00000    90.00000  Step:           1  Bead:       0 positions{angstrom}  cell{angstrom}
       O -3.11416e+00  1.06645e+00  3.38932e-01
       H -3.12388e+00  5.72939e-01  1.15852e+00
       H -3.26513e+00  1.98503e+00  5.33213e-01
       H -3.56455e+00  5.84493e-01 -3.86086e-01
4
# CELL(abcABC): 1000.00000  1000.00000  1000.00000    90.00000    90.00000    90.00000  Step:           2  Bead:       0 positions{angstrom}  cell{angstrom}
       O -3.11232e+00  1.06643e+00  3.38290e-01
       H -3.13416e+00  5.62937e-01  1.16703e+00
       H -3.26568e+00  1.99029e+00  5.32383e-01
       H -3.58300e+00  5.89569e-01 -3.83572e-01
4
# CELL(abcABC): 1000.00000  1000.00000  1000.00000    90.00000    90.00000    90.00000  Step:           3  Bead:       0 positions{angstrom}  cell{angstrom}
       O -3.11028e+00  1.06621e+00  3.37591e-01
       H -3.14425e+00  5.50973e-01  1.17811e+00
       H -3.26798e+00  1.99984e+00  5.30992e-01
       H -3.60290e+00  5.95420e-01 -3.82168e-01
4
# CELL(abcABC): 1000.00000  1000.00000  1000.00000    90.00000    90.00000    90.00000  Step:           4  Bead:       0 positions{angstrom}  cell{angstrom}
       O -3.10815e+00  1.06582e+00  3.37065e-01
       H -3.15490e+00  5.38083e-01  1.18738e+00
       H -3.27093e+00  2.01207e+00  5.27995e-01
       H -3.62310e+00  6.02336e-01 -3.80081e-01
4
# CELL(abcABC): 1000.00000  1000.00000  1000.00000    90.00000    90.00000    90.00000  Step:           5  Bead:       0 positions{angstrom}  cell{angstrom}
       O -3.10585e+00  1.06511e+00  3.36728e-01
       H -3.16662e+00  5.26388e-01  1.19442e+00
       H -3.27560e+00  2.02606e+00  5.24881e-01
       H -3.64337e+00  6.11244e-01 -3.78676e-01
4
# CELL(abcABC): 1000.00000  1000.00000  1000.00000    90.00000    90.00000    90.00000  Step:           6  Bead:       0 positions{angstrom}  cell{angstrom}
       O -3.10339e+00  1.06433e+00  3.36613e-01
       H -3.17851e+00  5.16833e-01  1.19768e+00
       H -3.28168e+00  2.03752e+00  5.19674e-01
       H -3.66439e+00  6.21734e-01 -3.74892e-01
4
# CELL(abcABC): 1000.00000  1000.00000  1000.00000    90.00000    90.00000    90.00000  Step:           7  Bead:       0 positions{angstrom}  cell{angstrom}
       O -3.10099e+00  1.06334e+00  3.36495e-01
       H -3.18909e+00  5.09643e-01  1.19891e+00
       H -3.28845e+00  2.04644e+00  5.14283e-01
       H -3.68518e+00  6.35693e-01 -3.68853e-01
4
# CELL(abcABC): 1000.00000  1000.00000  1000.00000    90.00000    90.00000    90.00000  Step:           8  Bead:       0 positions{angstrom}  cell{angstrom}
       O -3.09872e+00  1.06230e+00  3.36613e-01
       H -3.19870e+00  5.05135e-01  1.19593e+00
       H -3.29445e+00  2.05128e+00  5.07456e-01
       H -3.70560e+00  6.51929e-01 -3.60926e-01
4
# CELL(abcABC): 1000.00000  1000.00000  1000.00000    90.00000    90.00000    90.00000  Step:           9  Bead:       0 positions{angstrom}  cell{angstrom}
       O -3.09657e+00  1.06131e+00  3.36758e-01
       H -3.20813e+00  5.02534e-01  1.19065e+00
       H -3.29937e+00  2.05252e+00  5.00693e-01
       H -3.72528e+00  6.68955e-01 -3.51173e-01
4
# CELL(abcABC): 1000.00000  1000.00000  1000.00000    90.00000    90.00000    90.00000  Step:          10  Bead:       0 positions{angstrom}  cell{angstrom}
       O -3.09454e+00  1.06025e+00  3.37143e-01
       H -3.21712e+00  5.02609e-01  1.18150e+00
       H -3.30384e+00  2.05045e+00  4.92955e-01
       H -3.74406e+00  6.87723e-01 -3.40400e-01
4
# CELL(abcABC): 1000.00000  1000.00000  1000.00000    90.00000    90.00000    90.00000  Step:          11  Bead:       0 positions{angstrom}  cell{angstrom}
       O -3.09264e+00  1.05923e+00  3.37740e-01
       H -3.22539e+00  5.05862e-01  1.16857e+00
       H -3.30911e+00  2.04418e+00  4.84883e-01
       H -3.76068e+00  7.06928e-01 -3.28879e-01
4
# CELL(abcABC): 1000.00000  1000.00000  1000.00000    90.00000    90.00000    90.00000  Step:          12  Bead:       0 positions{angstrom}  cell{angstrom}
       O -3.09103e+00  1.05833e+00  3.38413e-01
       H -3.23184e+00  5.10918e-01  1.15391e+00
       H -3.31386e+00  2.03322e+00  4.76248e-01
       H -3.77507e+00  7.27204e-01 -3.16264e-01
4
# CELL(abcABC): 1000.00000  1000.00000  1000.00000    90.00000    90.00000    90.00000  Step:          13  Bead:       0 positions{angstrom}  cell{angstrom}
       O -3.08964e+00  1.05752e+00  3.38985e-01
       H -3.23772e+00  5.17858e-01  1.13944e+00
       H -3.31668e+00  2.01954e+00  4.68479e-01
       H -3.78840e+00  7.46847e-01 -3.03110e-01
4
# CELL(abcABC): 1000.00000  1000.00000  1000.00000    90.00000    90.00000    90.00000  Step:          14  Bead:       0 positions{angstrom}  cell{angstrom}
       O -3.08847e+00  1.05676e+00  3.39340e-01
       H -3.24186e+00  5.24975e-01  1.12693e+00
       H -3.31834e+00  2.00518e+00  4.61990e-01
       H -3.80127e+00  7.66022e-01 -2.89747e-01
4
# CELL(abcABC): 1000.00000  1000.00000  1000.00000    90.00000    90.00000    90.00000  Step:          15  Bead:       0 positions{angstrom}  cell{angstrom}
       O -3.08734e+00  1.05597e+00  3.39197e-01
       H -3.24780e+00  5.31177e-01  1.11971e+00
       H -3.32006e+00  1.99162e+00  4.57445e-01
       H -3.81142e+00  7.86022e-01 -2.75718e-01
4
# CELL(abcABC): 1000.00000  1000.00000  1000.00000    90.00000    90.00000    90.00000  Step:          16  Bead:       0 positions{angstrom}  cell{angstrom}
       O -3.08634e+00  1.05513e+00  3.38717e-01
       H -3.25271e+00  5.36022e-01  1.11632e+00
       H -3.32150e+00  1.98100e+00  4.55121e-01
       H -3.82099e+00  8.05070e-01 -2.62368e-01
4
# CELL(abcABC): 1000.00000  1000.00000  1000.00000    90.00000    90.00000    90.00000  Step:          17  Bead:       0 positions{angstrom}  cell{angstrom}
       O -3.08528e+00  1.05429e+00  3.37870e-01
       H -3.25704e+00  5.39999e-01  1.11788e+00
       H -3.32358e+00  1.97424e+00  4.54307e-01
       H -3.83143e+00  8.21235e-01 -2.49674e-01
4
# CELL(abcABC): 1000.00000  1000.00000  1000.00000    90.00000    90.00000    90.00000  Step:          18  Bead:       0 positions{angstrom}  cell{angstrom}
       O -3.08419e+00  1.05332e+00  3.36673e-01
       H -3.26252e+00  5.43481e-01  1.12432e+00
       H -3.32415e+00  1.97149e+00  4.56054e-01
       H -3.84273e+00  8.35793e-01 -2.38875e-01
4
# CELL(abcABC): 1000.00000  1000.00000  1000.00000    90.00000    90.00000    90.00000  Step:          19  Bead:       0 positions{angstrom}  cell{angstrom}
       O -3.08319e+00  1.05235e+00  3.35161e-01
       H -3.26760e+00  5.45840e-01  1.13532e+00
       H -3.32495e+00  1.97244e+00  4.59801e-01
       H -3.85267e+00  8.47873e-01 -2.29612e-01
4
# CELL(abcABC): 1000.00000  1000.00000  1000.00000    90.00000    90.00000    90.00000  Step:          20  Bead:       0 positions{angstrom}  cell{angstrom}
       O -3.08222e+00  1.05137e+00  3.33496e-01
       H -3.27234e+00  5.48232e-01  1.14786e+00
       H -3.32592e+00  1.97746e+00  4.66352e-01
       H -3.86237e+00  8.56022e-01 -2.22265e-01
4
# CELL(abcABC): 1000.00000  1000.00000  1000.00000    90.00000    90.00000    90.00000  Step:          21  Bead:       0 positions{angstrom}  cell{angstrom}
       O -3.08140e+00  1.05036e+00  3.31789e-01
       H -3.27701e+00  5.50282e-01  1.16088e+00
       H -3.32417e+00  1.98616e+00  4.76160e-01
       H -3.87246e+00  8.61367e-01 -2.18017e-01
4
# CELL(abcABC): 1000.00000  1000.00000  1000.00000    90.00000    90.00000    90.00000  Step:          22  Bead:       0 positions{angstrom}  cell{angstrom}
       O -3.08079e+00  1.04927e+00  3.30160e-01
       H -3.28207e+00  5.52148e-01  1.17527e+00
       H -3.31877e+00  1.99701e+00  4.86270e-01
       H -3.88249e+00  8.65900e-01 -2.16643e-01
4
# CELL(abcABC): 1000.00000  1000.00000  1000.00000    90.00000    90.00000    90.00000  Step:          23  Bead:       0 positions{angstrom}  cell{angstrom}
       O -3.08043e+00  1.04821e+00  3.28787e-01
       H -3.28603e+00  5.55779e-01  1.18826e+00
       H -3.31055e+00  2.00893e+00  4.98203e-01
       H -3.89247e+00  8.67173e-01 -2.19767e-01
4
# CELL(abcABC): 1000.00000  1000.00000  1000.00000    90.00000    90.00000    90.00000  Step:          24  Bead:       0 positions{angstrom}  cell{angstrom}
       O -3.08038e+00  1.04713e+00  3.27548e-01
       H -3.28833e+00  5.60008e-01  1.19934e+00
       H -3.29977e+00  2.02116e+00  5.11284e-01
       H -3.90172e+00  8.67918e-01 -2.24272e-01
4
# CELL(abcABC): 1000.00000  1000.00000  1000.00000    90.00000    90.00000    90.00000  Step:          25  Bead:       0 positions{angstrom}  cell{angstrom}
       O -3.08063e+00  1.04624e+00  3.26385e-01
       H -3.28950e+00  5.65046e-01  1.20866e+00
       H -3.28703e+00  2.03075e+00  5.24910e-01
       H -3.90933e+00  8.67343e-01 -2.28745e-01
4
# CELL(abcABC): 1000.00000  1000.00000  1000.00000    90.00000    90.00000    90.00000  Step:          26  Bead:       0 positions{angstrom}  cell{angstrom}
       O -3.08124e+00  1.04559e+00  3.25388e-01
       H -3.28946e+00  5.71310e-01  1.21416e+00
       H -3.27171e+00  2.03712e+00  5.38203e-01
       H -3.91507e+00  8.65172e-01 -2.31717e-01
4
# CELL(abcABC): 1000.00000  1000.00000  1000.00000    90.00000    90.00000    90.00000  Step:          27  Bead:       0 positions{angstrom}  cell{angstrom}
       O -3.08232e+00  1.04508e+00  3.24623e-01
       H -3.28836e+00  5.80319e-01  1.21565e+00
       H -3.25422e+00  2.03913e+00  5.50576e-01
       H -3.91637e+00  8.62252e-01 -2.33446e-01
4
# CELL(abcABC): 1000.00000  1000.00000  1000.00000    90.00000    90.00000    90.00000  Step:          28  Bead:       0 positions{angstrom}  cell{angstrom}
       O -3.08373e+00  1.04475e+00  3.24007e-01
       H -3.28714e+00  5.89291e-01  1.21376e+00
       H -3.23424e+00  2.03755e+00  5.62223e-01
       H -3.91529e+00  8.60087e-01 -2.33425e-01
4
# CELL(abcABC): 1000.00000  1000.00000  1000.00000    90.00000    90.00000    90.00000  Step:          29  Bead:       0 positions{angstrom}  cell{angstrom}
       O -3.08550e+00  1.04455e+00  3.23614e-01
       H -3.28413e+00  5.99649e-01  1.20756e+00
       H -3.21359e+00  2.03233e+00  5.72569e-01
       H -3.91085e+00  8.58019e-01 -2.31331e-01
4
# CELL(abcABC): 1000.00000  1000.00000  1000.00000    90.00000    90.00000    90.00000  Step:          30  Bead:       0 positions{angstrom}  cell{angstrom}
       O -3.08755e+00  1.04442e+00  3.23373e-01
       H -3.27981e+00  6.11447e-01  1.19998e+00
       H -3.19193e+00  2.02396e+00  5.81783e-01
       H -3.90421e+00  8.56736e-01 -2.29147e-01
4
# CELL(abcABC): 1000.00000  1000.00000  1000.00000    90.00000    90.00000    90.00000  Step:          31  Bead:       0 positions{angstrom}  cell{angstrom}
       O -3.08995e+00  1.04432e+00  3.23348e-01
       H -3.27322e+00  6.23063e-01  1.19150e+00
       H -3.16874e+00  2.01435e+00  5.88624e-01
       H -3.89588e+00  8.56256e-01 -2.27105e-01
4
# CELL(abcABC): 1000.00000  1000.00000  1000.00000    90.00000    90.00000    90.00000  Step:          32  Bead:       0 positions{angstrom}  cell{angstrom}
       O -3.09245e+00  1.04446e+00  3.23259e-01
       H -3.26716e+00  6.31560e-01  1.18377e+00
       H -3.14446e+00  2.00460e+00  5.94818e-01
       H -3.88658e+00  8.55258e-01 -2.24154e-01
4
# CELL(abcABC): 1000.00000  1000.00000  1000.00000    90.00000    90.00000    90.00000  Step:          33  Bead:       0 positions{angstrom}  cell{angstrom}
       O -3.09496e+00  1.04487e+00  3.23145e-01
       H -3.26156e+00  6.37265e-01  1.17858e+00
       H -3.11955e+00  1.99345e+00  5.99589e-01
       H -3.87729e+00  8.54189e-01 -2.21918e-01
4
# CELL(abcABC): 1000.00000  1000.00000  1000.00000    90.00000    90.00000    90.00000  Step:          34  Bead:       0 positions{angstrom}  cell{angstrom}
       O -3.09726e+00  1.04544e+00  3.23201e-01
       H -3.25566e+00  6.40009e-01  1.17532e+00
       H -3.09649e+00  1.98252e+00  6.02815e-01
       H -3.86971e+00  8.53411e-01 -2.22782e-01
4
# CELL(abcABC): 1000.00000  1000.00000  1000.00000    90.00000    90.00000    90.00000  Step:          35  Bead:       0 positions{angstrom}  cell{angstrom}
       O -3.09945e+00  1.04605e+00  3.23330e-01
       H -3.24839e+00  6.39421e-01  1.17386e+00
       H -3.07490e+00  1.97439e+00  6.04932e-01
       H -3.86375e+00  8.52449e-01 -2.25486e-01
4
# CELL(abcABC): 1000.00000  1000.00000  1000.00000    90.00000    90.00000    90.00000  Step:          36  Bead:       0 positions{angstrom}  cell{angstrom}
       O -3.10149e+00  1.04661e+00  3.23555e-01
       H -3.24133e+00  6.35359e-01  1.17453e+00
       H -3.05358e+00  1.97032e+00  6.04509e-01
       H -3.85979e+00  8.51676e-01 -2.29305e-01
4
# CELL(abcABC): 1000.00000  1000.00000  1000.00000    90.00000    90.00000    90.00000  Step:          37  Bead:       0 positions{angstrom}  cell{angstrom}
       O -3.10338e+00  1.04723e+00  3.23764e-01
       H -3.23412e+00  6.28707e-01  1.17935e+00
       H -3.03227e+00  1.96880e+00  6.01927e-01
       H -3.85834e+00  8.50028e-01 -2.34855e-01
4
# CELL(abcABC): 1000.00000  1000.00000  1000.00000    90.00000    90.00000    90.00000  Step:          38  Bead:       0 positions{angstrom}  cell{angstrom}
       O -3.10491e+00  1.04780e+00  3.24267e-01
       H -3.22836e+00  6.18876e-01  1.18454e+00
       H -3.01140e+00  1.96941e+00  5.97400e-01
       H -3.86063e+00  8.50094e-01 -2.43515e-01
4
# CELL(abcABC): 1000.00000  1000.00000  1000.00000    90.00000    90.00000    90.00000  Step:          39  Bead:       0 positions{angstrom}  cell{angstrom}
       O -3.10645e+00  1.04843e+00  3.24816e-01
       H -3.22225e+00  6.06100e-01  1.19087e+00
       H -2.99063e+00  1.97186e+00  5.92152e-01
       H -3.86303e+00  8.50547e-01 -2.53301e-01
4
# CELL(abcABC): 1000.00000  1000.00000  1000.00000    90.00000    90.00000    90.00000  Step:          40  Bead:       0 positions{angstrom}  cell{angstrom}
       O -3.10793e+00  1.04889e+00  3.25353e-01
       H -3.21643e+00  5.91876e-01  1.19767e+00
       H -2.97013e+00  1.97698e+00  5.86973e-01
       H -3.86594e+00  8.52242e-01 -2.63437e-01
4
# CELL(abcABC): 1000.00000  1000.00000  1000.00000    90.00000    90.00000    90.00000  Step:          41  Bead:       0 positions{angstrom}  cell{angstrom}
       O -3.10933e+00  1.04921e+00  3.26034e-01
       H -3.21115e+00  5.77617e-01  1.20244e+00
       H -2.94964e+00  1.98418e+00  5.80570e-01
       H -3.86947e+00  8.54308e-01 -2.72620e-01
4
# CELL(abcABC): 1000.00000  1000.00000  1000.00000    90.00000    90.00000    90.00000  Step:          42  Bead:       0 positions{angstrom}  cell{angstrom}
       O -3.11080e+00  1.04954e+00  3.26980e-01
       H -3.20462e+00  5.61460e-01  1.20442e+00
       H -2.92966e+00  1.99210e+00  5.72989e-01
       H -3.87260e+00  8.57289e-01 -2.82049e-01
4
# CELL(abcABC): 1000.00000  1000.00000  1000.00000    90.00000    90.00000    90.00000  Step:          43  Bead:       0 positions{angstrom}  cell{angstrom}
       O -3.11225e+00  1.04972e+00  3.28160e-01
       H -3.19850e+00  5.46705e-01  1.20297e+00
       H -2.91054e+00  2.00097e+00  5.64128e-01
       H -3.87495e+00  8.60376e-01 -2.90450e-01
4
# CELL(abcABC): 1000.00000  1000.00000  1000.00000    90.00000    90.00000    90.00000  Step:          44  Bead:       0 positions{angstrom}  cell{angstrom}
       O -3.11366e+00  1.04987e+00  3.29549e-01
       H -3.19229e+00  5.32323e-01  1.19752e+00
       H -2.89254e+00  2.00797e+00  5.53311e-01
       H -3.87667e+00  8.65257e-01 -2.96242e-01
4
# CELL(abcABC): 1000.00000  1000.00000  1000.00000    90.00000    90.00000    90.00000  Step:          45  Bead:       0 positions{angstrom}  cell{angstrom}
       O -3.11498e+00  1.05004e+00  3.31186e-01
       H -3.18674e+00  5.19425e-01  1.18805e+00
       H -2.87527e+00  2.01204e+00  5.40315e-01
       H -3.87851e+00  8.71470e-01 -2.99762e-01
4
# CELL(abcABC): 1000.00000  1000.00000  1000.00000    90.00000    90.00000    90.00000  Step:          46  Bead:       0 positions{angstrom}  cell{angstrom}
       O -3.11635e+00  1.05024e+00  3.33000e-01
       H -3.18134e+00  5.08615e-01  1.17515e+00
       H -2.85964e+00  2.01241e+00  5.25658e-01
       H -3.87778e+00  8.78753e-01 -3.00996e-01
4
# CELL(abcABC): 1000.00000  1000.00000  1000.00000    90.00000    90.00000    90.00000  Step:          47  Bead:       0 positions{angstrom}  cell{angstrom}
       O -3.11771e+00  1.05036e+00  3.35027e-01
       H -3.17593e+00  4.98904e-01  1.16019e+00
       H -2.84544e+00  2.00993e+00  5.09186e-01
       H -3.87597e+00  8.89013e-01 -3.01738e-01
4
# CELL(abcABC): 1000.00000  1000.00000  1000.00000    90.00000    90.00000    90.00000  Step:          48  Bead:       0 positions{angstrom}  cell{angstrom}
       O -3.11904e+00  1.05062e+00  3.37066e-01
       H -3.17001e+00  4.89230e-01  1.14408e+00
       H -2.83276e+00  2.00502e+00  4.91326e-01
       H -3.87343e+00  8.99418e-01 -3.00132e-01
4
# CELL(abcABC): 1000.00000  1000.00000  1000.00000    90.00000    90.00000    90.00000  Step:          49  Bead:       0 positions{angstrom}  cell{angstrom}
       O -3.12040e+00  1.05096e+00  3.38943e-01
       H -3.16396e+00  4.79735e-01  1.12809e+00
       H -2.82027e+00  1.99706e+00  4.73277e-01
       H -3.87030e+00  9.11543e-01 -2.95884e-01
4
# CELL(abcABC): 1000.00000  1000.00000  1000.00000    90.00000    90.00000    90.00000  Step:          50  Bead:       0 positions{angstrom}  cell{angstrom}
       O -3.12158e+00  1.05144e+00  3.40812e-01
       H -3.15814e+00  4.70539e-01  1.11229e+00
       H -2.81064e+00  1.98612e+00  4.55366e-01
       H -3.86712e+00  9.23963e-01 -2.91843e-01
4
# CELL(abcABC): 1000.00000  1000.00000  1000.00000    90.00000    90.00000    90.00000  Step:          51  Bead:       0 positions{angstrom}  cell{angstrom}
       O -3.12273e+00  1.05200e+00  3.42530e-01
       H -3.15258e+00  4.60605e-01  1.09747e+00
       H -2.80214e+00  1.97408e+00  4.37743e-01
       H -3.86290e+00  9.37167e-01 -2.86668e-01
4
# CELL(abcABC): 1000.00000  1000.00000  1000.00000    90.00000    90.00000    90.00000  Step:          52  Bead:       0 positions{angstrom}  cell{angstrom}
       O -3.12382e+00  1.05270e+00  3.44157e-01
       H -3.14730e+00  4.49687e-01  1.08484e+00
       H -2.79427e+00  1.96114e+00  4.19779e-01
       H -3.85874e+00  9.49890e-01 -2.81902e-01
4
# CELL(abcABC): 1000.00000  1000.00000  1000.00000    90.00000    90.00000    90.00000  Step:          53  Bead:       0 positions{angstrom}  cell{angstrom}
       O -3.12489e+00  1.05339e+00  3.45531e-01
       H -3.14127e+00  4.38285e-01  1.07396e+00
       H -2.78650e+00  1.95048e+00  4.03592e-01
       H -3.85558e+00  9.61018e-01 -2.76646e-01
4
# CELL(abcABC): 1000.00000  1000.00000  1000.00000    90.00000    90.00000    90.00000  Step:          54  Bead:       0 positions{angstrom}  cell{angstrom}
       O -3.12589e+00  1.05414e+00  3.46417e-01
       H -3.13507e+00  4.24906e-01  1.06707e+00
       H -2.77843e+00  1.94241e+00  3.89626e-01
       H -3.85392e+00  9.70534e-01 -2.69855e-01
4
# CELL(abcABC): 1000.00000  1000.00000  1000.00000    90.00000    90.00000    90.00000  Step:          55  Bead:       0 positions{angstrom}  cell{angstrom}
       O -3.12689e+00  1.05484e+00  3.47071e-01
       H -3.12909e+00  4.10920e-01  1.06362e+00
       H -2.76908e+00  1.93699e+00  3.78002e-01
       H -3.85331e+00  9.78836e-01 -2.65175e-01
4
# CELL(abcABC): 1000.00000  1000.00000  1000.00000    90.00000    90.00000    90.00000  Step:          56  Bead:       0 positions{angstrom}  cell{angstrom}
       O -3.12792e+00  1.05539e+00  3.47576e-01
       H -3.12048e+00  3.97060e-01  1.06284e+00
       H -2.75850e+00  1.93410e+00  3.67086e-01
       H -3.85621e+00  9.86853e-01 -2.61487e-01
4
# CELL(abcABC): 1000.00000  1000.00000  1000.00000    90.00000    90.00000    90.00000  Step:          57  Bead:       0 positions{angstrom}  cell{angstrom}
       O -3.12890e+00  1.05575e+00  3.47932e-01
       H -3.10972e+00  3.84389e-01  1.06387e+00
       H -2.74750e+00  1.93334e+00  3.59026e-01
       H -3.86243e+00  9.94514e-01 -2.60101e-01
4
# CELL(abcABC): 1000.00000  1000.00000  1000.00000    90.00000    90.00000    90.00000  Step:          58  Bead:       0 positions{angstrom}  cell{angstrom}
       O -3.12994e+00  1.05600e+00  3.48224e-01
       H -3.09722e+00  3.72317e-01  1.06524e+00
       H -2.73468e+00  1.93463e+00  3.53507e-01
       H -3.87127e+00  1.00134e+00 -2.60582e-01
4
# CELL(abcABC): 1000.00000  1000.00000  1000.00000    90.00000    90.00000    90.00000  Step:          59  Bead:       0 positions{angstrom}  cell{angstrom}
       O -3.13104e+00  1.05605e+00  3.48355e-01
       H -3.08316e+00  3.62380e-01  1.06641e+00
       H -2.72033e+00  1.93765e+00  3.51497e-01
       H -3.88210e+00  1.00742e+00 -2.61835e-01
4
# CELL(abcABC): 1000.00000  1000.00000  1000.00000    90.00000    90.00000    90.00000  Step:          60  Bead:       0 positions{angstrom}  cell{angstrom}
       O -3.13223e+00  1.05604e+00  3.48495e-01
       H -3.06956e+00  3.54620e-01  1.06675e+00
       H -2.70436e+00  1.94019e+00  3.49783e-01
       H -3.89283e+00  1.01286e+00 -2.62674e-01
4
# CELL(abcABC): 1000.00000  1000.00000  1000.00000    90.00000    90.00000    90.00000  Step:          61  Bead:       0 positions{angstrom}  cell{angstrom}
       O -3.13357e+00  1.05600e+00  3.48627e-01
       H -3.05461e+00  3.49244e-01  1.06542e+00
       H -2.68674e+00  1.94155e+00  3.48538e-01
       H -3.90410e+00  1.01756e+00 -2.62202e-01
4
# CELL(abcABC): 1000.00000  1000.00000  1000.00000    90.00000    90.00000    90.00000  Step:          62  Bead:       0 positions{angstrom}  cell{angstrom}
       O -3.13490e+00  1.05602e+00  3.48855e-01
       H -3.04014e+00  3.46123e-01  1.06191e+00
       H -2.67044e+00  1.94045e+00  3.48374e-01
       H -3.91376e+00  1.02140e+00 -2.62146e-01
4
# CELL(abcABC): 1000.00000  1000.00000  1000.00000    90.00000    90.00000    90.00000  Step:          63  Bead:       0 positions{angstrom}  cell{angstrom}
       O -3.13623e+00  1.05596e+00  3.48884e-01
       H -3.02520e+00  3.47069e-01  1.05702e+00
       H -2.65508e+00  1.93593e+00  3.49444e-01
       H -3.92295e+00  1.02588e+00 -2.58787e-01
4
# CELL(abcABC): 1000.00000  1000.00000  1000.00000    90.00000    90.00000    90.00000  Step:          64  Bead:       0 positions{angstrom}  cell{angstrom}
       O -3.13764e+00  1.05596e+00  3.48815e-01
       H -3.00905e+00  3.51210e-01  1.05137e+00
       H -2.64034e+00  1.92814e+00  3.51757e-01
       H -3.93152e+00  1.02963e+00 -2.54356e-01
4
# CELL(abcABC): 1000.00000  1000.00000  1000.00000    90.00000    90.00000    90.00000  Step:          65  Bead:       0 positions{angstrom}  cell{angstrom}
       O -3.13908e+00  1.05597e+00  3.48699e-01
       H -2.99388e+00  3.58532e-01  1.04309e+00
       H -2.62616e+00  1.91851e+00  3.54912e-01
       H -3.93802e+00  1.03174e+00 -2.47398e-01
4
# CELL(abcABC): 1000.00000  1000.00000  1000.00000    90.00000    90.00000    90.00000  Step:          66  Bead:       0 positions{angstrom}  cell{angstrom}
       O -3.14055e+00  1.05599e+00  3.48405e-01
       H -2.97916e+00  3.70386e-01  1.03446e+00
       H -2.61318e+00  1.90448e+00  3.59155e-01
       H -3.94245e+00  1.03366e+00 -2.38335e-01
4
# CELL(abcABC): 1000.00000  1000.00000  1000.00000    90.00000    90.00000    90.00000  Step:          67  Bead:       0 positions{angstrom}  cell{angstrom}
       O -3.14193e+00  1.05620e+00  3.48000e-01
       H -2.96461e+00  3.82471e-01  1.02473e+00
       H -2.60101e+00  1.88815e+00  3.64442e-01
       H -3.94718e+00  1.03442e+00 -2.27457e-01
4
# CELL(abcABC): 1000.00000  1000.00000  1000.00000    90.00000    90.00000    90.00000  Step:          68  Bead:       0 positions{angstrom}  cell{angstrom}
       O -3.14332e+00  1.05652e+00  3.47615e-01
       H -2.94989e+00  3.94272e-01  1.01524e+00
       H -2.58965e+00  1.87031e+00  3.68381e-01
       H -3.95127e+00  1.03539e+00 -2.15795e-01
4
# CELL(abcABC): 1000.00000  1000.00000  1000.00000    90.00000    90.00000    90.00000  Step:          69  Bead:       0 positions{angstrom}  cell{angstrom}
       O -3.14460e+00  1.05712e+00  3.46910e-01
       H -2.93594e+00  4.03310e-01  1.00876e+00
       H -2.57984e+00  1.85191e+00  3.73169e-01
       H -3.95468e+00  1.03537e+00 -2.02926e-01
4
# CELL(abcABC): 1000.00000  1000.00000  1000.00000    90.00000    90.00000    90.00000  Step:          70  Bead:       0 positions{angstrom}  cell{angstrom}
       O -3.14598e+00  1.05771e+00  3.46082e-01
       H -2.92205e+00  4.10794e-01  1.00326e+00
       H -2.57029e+00  1.83478e+00  3.77331e-01
       H -3.95614e+00  1.03564e+00 -1.88433e-01
4
# CELL(abcABC): 1000.00000  1000.00000  1000.00000    90.00000    90.00000    90.00000  Step:          71  Bead:       0 positions{angstrom}  cell{angstrom}
       O -3.14724e+00  1.05848e+00  3.45226e-01
       H -2.90934e+00  4.14310e-01  9.98604e-01
       H -2.56126e+00  1.81866e+00  3.80427e-01
       H -3.95794e+00  1.03598e+00 -1.73284e-01
4
# CELL(abcABC): 1000.00000  1000.00000  1000.00000    90.00000    90.00000    90.00000  Step:          72  Bead:       0 positions{angstrom}  cell{angstrom}
       O -3.14842e+00  1.05921e+00  3.44274e-01
       H -2.89690e+00  4.14844e-01  9.96485e-01
       H -2.55173e+00  1.80524e+00  3.83425e-01
       H -3.96117e+00  1.03731e+00 -1.59047e-01
4
# CELL(abcABC): 1000.00000  1000.00000  1000.00000    90.00000    90.00000    90.00000  Step:          73  Bead:       0 positions{angstrom}  cell{angstrom}
       O -3.14940e+00  1.05997e+00  3.43404e-01
       H -2.88543e+00  4.12012e-01  9.96157e-01
       H -2.54173e+00  1.79538e+00  3.85422e-01
       H -3.96706e+00  1.03793e+00 -1.46918e-01
4
# CELL(abcABC): 1000.00000  1000.00000  1000.00000    90.00000    90.00000    90.00000  Step:          74  Bead:       0 positions{angstrom}  cell{angstrom}
       O -3.15021e+00  1.06061e+00  3.42768e-01
       H -2.87484e+00  4.06439e-01  9.95874e-01
       H -2.53131e+00  1.78908e+00  3.85073e-01
       H -3.97517e+00  1.03953e+00 -1.36181e-01
4
# CELL(abcABC): 1000.00000  1000.00000  1000.00000    90.00000    90.00000    90.00000  Step:          75  Bead:       0 positions{angstrom}  cell{angstrom}
       O -3.15063e+00  1.06121e+00  3.42256e-01
       H -2.86626e+00  3.97618e-01  9.95706e-01
       H -2.52135e+00  1.78561e+00  3.84191e-01
       H -3.98708e+00  1.04239e+00 -1.27012e-01
4
# CELL(abcABC): 1000.00000  1000.00000  1000.00000    90.00000    90.00000    90.00000  Step:          76  Bead:       0 positions{angstrom}  cell{angstrom}
       O -3.15088e+00  1.06155e+00  3.41773e-01
       H -2.85870e+00  3.87505e-01  9.96562e-01
       H -2.51184e+00  1.78532e+00  3.82061e-01
       H -4.00023e+00  1.04736e+00 -1.18068e-01
4
# CELL(abcABC): 1000.00000  1000.00000  1000.00000    90.00000    90.00000    90.00000  Step:          77  Bead:       0 positions{angstrom}  cell{angstrom}
       O -3.15078e+00  1.06171e+00  3.41423e-01
       H -2.85343e+00  3.77586e-01  9.96646e-01
       H -2.50366e+00  1.78789e+00  3.79205e-01
       H -4.01531e+00  1.05211e+00 -1.09733e-01
4
# CELL(abcABC): 1000.00000  1000.00000  1000.00000    90.00000    90.00000    90.00000  Step:          78  Bead:       0 positions{angstrom}  cell{angstrom}
       O -3.15036e+00  1.06174e+00  3.41404e-01
       H -2.85178e+00  3.66990e-01  9.94459e-01
       H -2.49608e+00  1.79298e+00  3.74798e-01
       H -4.03118e+00  1.05728e+00 -1.02847e-01
4
# CELL(abcABC): 1000.00000  1000.00000  1000.00000    90.00000    90.00000    90.00000  Step:          79  Bead:       0 positions{angstrom}  cell{angstrom}
       O -3.14977e+00  1.06172e+00  3.41505e-01
       H -2.85335e+00  3.57481e-01  9.91853e-01
       H -2.48917e+00  1.79828e+00  3.68966e-01
       H -4.04590e+00  1.06172e+00 -9.60058e-02
4
# CELL(abcABC): 1000.00000  1000.00000  1000.00000    90.00000    90.00000    90.00000  Step:          80  Bead:       0 positions{angstrom}  cell{angstrom}
       O -3.14907e+00  1.06161e+00  3.41627e-01
       H -2.85713e+00  3.49271e-01  9.87372e-01
       H -2.48421e+00  1.80362e+00  3.63065e-01
       H -4.05815e+00  1.06629e+00 -8.75579e-02
4
# CELL(abcABC): 1000.00000  1000.00000  1000.00000    90.00000    90.00000    90.00000  Step:          81  Bead:       0 positions{angstrom}  cell{angstrom}
       O -3.14827e+00  1.06128e+00  3.41913e-01
       H -2.86130e+00  3.43231e-01  9.80375e-01
       H -2.48252e+00  1.81051e+00  3.56374e-01
       H -4.06841e+00  1.07068e+00 -7.84201e-02
4
# CELL(abcABC): 1000.00000  1000.00000  1000.00000    90.00000    90.00000    90.00000  Step:          82  Bead:       0 positions{angstrom}  cell{angstrom}
       O -3.14732e+00  1.06103e+00  3.42172e-01
       H -2.86704e+00  3.37962e-01  9.72442e-01
       H -2.48340e+00  1.81537e+00  3.48799e-01
       H -4.07674e+00  1.07506e+00 -6.70142e-02
4
# CELL(abcABC): 1000.00000  1000.00000  1000.00000    90.00000    90.00000    90.00000  Step:          83  Bead:       0 positions{angstrom}  cell{angstrom}
       O -3.14631e+00  1.06068e+00  3.42464e-01
       H -2.87470e+00  3.34403e-01  9.63525e-01
       H -2.48729e+00  1.81952e+00  3.40570e-01
       H -4.08122e+00  1.08001e+00 -5.45107e-02
4
# CELL(abcABC): 1000.00000  1000.00000  1000.00000    90.00000    90.00000    90.00000  Step:          84  Bead:       0 positions{angstrom}  cell{angstrom}
       O -3.14521e+00  1.06032e+00  3.42787e-01
       H -2.88290e+00  3.31134e-01  9.52612e-01
       H -2.49509e+00  1.82266e+00  3.31725e-01
       H -4.08276e+00  1.08587e+00 -3.98805e-02
4
# CELL(abcABC): 1000.00000  1000.00000  1000.00000    90.00000    90.00000    90.00000  Step:          85  Bead:       0 positions{angstrom}  cell{angstrom}