11115
# CELL(abcABC):   47.66706    47.66706    47.66706    90.00000    90.00000    90.00000  Step:       10000  Bead:       0 positions{angstrom}  cell{angstrom}
       C  2.46750e+00  1.06063e+00  6.34133e+00
       H  2.95164e+00  1.65850e+00  7.22498e+00
       H  1.31307e+00  9.74689e-01  6.53578e+00
       H  2.65085e+00  1.63000e+00  5.41830e+00
       C  3.07393e+00 -2.66479e-01  6.13888e+00
       O  2.44292e+00 -1.22137e+00  6.42447e+00
       N  4.29905e+00 -3.08468e-01  5.59641e+00
       H  4.86517e+00  5.04502e-01  5.41700e+00
       C  5.06210e+00 -1.55947e+00  5.28756e+00
       H  4.27021e+00 -2.20043e+00  4.95924e+00
       C  5.99799e+00 -1.43689e+00  4.10849e+00
       H  6.71157e+00 -6.34698e-01  4.34179e+00
       H  5.42460e+00 -1.00217e+00  3.27685e+00
       C  6.56820e+00 -2.69675e+00  3.53705e+00
       O  7.70664e+00 -2.79511e+00  3.02337e+00
       O  5.79377e+00 -3.74111e+00  3.61732e+00
       H  6.27240e+00 -4.53171e+00  3.04567e+00
       C  5.81662e+00 -2.16412e+00  6.50778e+00
       O  6.87819e+00 -2.74036e+00  6.37915e+00
       N  5.30132e+00 -2.00280e+00  7.75286e+00
       H  5.80474e+00 -2.40905e+00  8.50496e+00
       H  4.35528e+00 -1.73340e+00  7.79608e+00
       O -2.11201e+01 -1.82761e+01 -3.29748e+00
       H -2.11144e+01 -1.84346e+01 -2.31391e+00
       H -2.02108e+01 -1.85257e+01 -3.37810e+00
       O -2.93744e+01 -1.38539e+01 -3.40511e+01
       H -2.92868e+01 -1.47859e+01 -3.42594e+01
       H -2.98661e+01 -1.35791e+01 -3.48033e+01
       O -2.08546e+01 -9.71159e+00  7.95505e-01
       H -2.06192e+01 -9.61381e+00  1.76499e+00
       H -2.15421e+01 -1.03449e+01  8.07075e-01
       O -1.54792e+01 -2.78989e+01 -1.20386e+01
       H -1.58502e+01 -2.72530e+01 -1.13859e+01
       H -1.46040e+01 -2.74668e+01 -1.20884e+01
       O -2.41484e+01 -1.30572e+01 -6.17324e+00
       H -2.31750e+01 -1.27752e+01 -6.29310e+00
       H -2.46522e+01 -1.24612e+01 -6.78810e+00
       O -2.16473e+01 -2.18295e+01 -1.46332e+01
       H -2.25049e+01 -2.22646e+01 -1.47308e+01
       H -2.10540e+01 -2.24686e+01 -1.43170e+01
       O -2.39641e+01 -2.16002e+01 -1.85371e+01
       H -2.32388e+01 -2.11730e+01 -1.89587e+01
       H -2.36957e+01 -2.25099e+01 -1.84926e+01
       O -2.21631e+01 -1.79265e+01 -1.69583e+01
       H -2.19547e+01 -1.88438e+01 -1.72334e+01
       H -2.20146e+01 -1.81382e+01 -1.60168e+01
       O -1.20469e+01 -2.83066e+01 -2.18299e+01
       H -1.28685e+01 -2.79782e+01 -2.14301e+01
       H -1.18786e+01 -2.76452e+01 -2.25789e+01
       O -5.06587e+00 -2.78059e+01 -7.50230e+00
       H -4.39459e+00 -2.84138e+01 -7.83839e+00
       H -5.50807e+00 -2.74815e+01 -8.30883e+00
       O -1.32206e+01 -1.45456e+01 -2.12698e+01
       H -1.33495e+01 -1.54696e+01 -2.12809e+01
       H -1.28408e+01 -1.43826e+01 -2.03756e+01
       O -7.09739e+00  6.42026e+00 -9.83707e-01
       H -7.50919e+00  5.53561e+00 -1.02984e+00
       H -7.61813e+00  6.91017e+00 -4.39680e-01
       O -1.17772e+01 -1.89364e+01 -2.31176e+01
       H -1.24590e+01 -1.90934e+01 -2.37848e+01
       H -1.11233e+01 -1.95929e+01 -2.33775e+01
       O -1.78145e+01 -7.17007e+00 -1.04790e+01
       H -1.74921e+01 -8.05927e+00 -1.07411e+01
       H -1.87034e+01 -7.17891e+00 -1.08760e+01
       O -2.23423e+01 -3.24674e+01 -2.74426e+01
       H -2.21573e+01 -3.30666e+01 -2.82216e+01
       H -2.23811e+01 -3.31641e+01 -2.67645e+01
       O -4.90382e+00 -2.39035e+01 -1.81992e+01
       H -4.93688e+00 -2.39165e+01 -1.91459e+01
       H -5.58107e+00 -2.45545e+01 -1.79991e+01
       O -2.83996e+01 -2.65821e+01  4.65998e-01
       H -2.86464e+01 -2.58771e+01 -1.03714e-01
       H -2.91354e+01 -2.65347e+01  1.10861e+00
       O -1.21813e+01 -1.06451e+01 -2.06045e+01
       H -1.21644e+01 -1.12515e+01 -2.13459e+01
       H -1.30516e+01 -1.08235e+01 -2.01019e+01
       O -2.20529e+01 -1.43335e+01  2.61441e+00
       H -2.12366e+01 -1.38355e+01  2.97553e+00
       H -2.27725e+01 -1.44115e+01  3.36336e+00
       O -1.75446e+01 -1.07970e+00 -3.08709e+01
       H -1.73514e+01 -2.01481e+00 -3.11792e+01
       H -1.71023e+01 -5.93894e-01 -3.15819e+01
       O -1.69999e+01 -3.20621e+01 -1.10516e+01
       H -1.62597e+01 -3.24387e+01 -1.15832e+01
       H -1.74680e+01 -3.29085e+01 -1.08699e+01
       O -3.67581e+01 -1.16317e+01 -2.64837e+01
       H -3.65825e+01 -1.08089e+01 -2.59932e+01
       H -3.69057e+01 -1.22274e+01 -2.57049e+01
       O -6.77730e+00 -6.22086e+00 -2.14305e+01
       H -7.13756e+00 -5.58477e+00 -2.21306e+01
       H -7.45178e+00 -6.91105e+00 -2.13475e+01
       O -2.83548e+01 -1.18950e+01 -1.24526e+01
       H -2.80049e+01 -1.26783e+01 -1.20454e+01
       H -2.90125e+01 -1.14715e+01 -1.18116e+01
       O -1.20576e+01 -3.44055e+01 -3.13386e+01
       H -1.28153e+01 -3.39581e+01 -3.08510e+01
       H -1.26013e+01 -3.48795e+01 -3.19421e+01
       O -1.83320e+01 -9.18685e+00 -2.08561e+01
       H -1.85855e+01 -8.68595e+00 -2.16832e+01
       H -1.74605e+01 -9.60414e+00 -2.10946e+01
       O -1.20466e+00  1.08866e+01 -4.59174e+00
       H -1.91063e+00  1.04799e+01 -4.03117e+00
       H -1.32046e+00  1.18459e+01 -4.34434e+00
       O -1.78989e+01  1.65221e+00 -3.25301e+00
       H -1.83361e+01  2.53688e+00 -3.18078e+00
       H -1.77400e+01  1.70719e+00 -4.16729e+00
       O -1.70699e+01 -1.34913e+01 -1.13484e+01
       H -1.63042e+01 -1.39852e+01 -1.10865e+01
       H -1.76665e+01 -1.39508e+01 -1.07931e+01
       O -8.92976e+00 -1.98138e+01 -8.37416e+00
       H -9.86854e+00 -1.96048e+01 -8.18258e+00
       H -9.10356e+00 -2.03389e+01 -9.22134e+00
       O  1.05803e+01  2.43491e+00 -3.93833e+01
       H  1.14144e+01  1.93958e+00 -3.95981e+01
       H  1.04583e+01  2.79726e+00 -4.02347e+01
       O -1.09673e+00 -2.81940e+01 -1.44883e+01
       H -1.45592e+00 -2.83781e+01 -1.53781e+01
       H -1.82940e+00 -2.85992e+01 -1.39452e+01
       O  3.63050e+00 -1.64922e+00 -8.18463e+00
       H  3.66246e+00 -8.46719e-01 -7.58589e+00
       H  3.46205e+00 -2.29593e+00 -7.51979e+00
       O -3.01281e+01 -1.32039e+01 -6.57523e+00
       H -2.92502e+01 -1.35646e+01 -6.21836e+00
       H -2.97380e+01 -1.28647e+01 -7.43065e+00
       O -1.07143e+01 -2.35779e+01 -1.70198e+01
       H -1.16404e+01 -2.35122e+01 -1.68605e+01
       H -1.05404e+01 -2.26570e+01 -1.72804e+01
       O -2.00846e+01 -1.61177e+01 -3.03136e+01
       H -2.09164e+01 -1.63684e+01 -3.07853e+01
       H -2.02779e+01 -1.51760e+01 -3.02705e+01
       O -9.29680e+00 -1.58457e+01  2.43942e+00
       H -9.00086e+00 -1.50589e+01  1.92200e+00
       H -8.48785e+00 -1.59608e+01  3.01373e+00
       O -1.75366e+01 -3.76204e+01 -1.40722e+01
       H -1.78900e+01 -3.70113e+01 -1.47415e+01
       H -1.72502e+01 -3.70406e+01 -1.32986e+01
       O -7.06185e+00 -4.33955e+00  9.69374e+00
       H -7.58972e+00 -4.31161e+00  8.89561e+00
       H -7.30688e+00 -3.55878e+00  1.01607e+01
       O  3.00499e+00 -1.48157e+01 -3.57810e+01
       H  2.39871e+00 -1.40664e+01 -3.57409e+01
       H  3.75123e+00 -1.45068e+01 -3.52744e+01
       O -6.12822e+00 -2.98586e+01 -2.01397e+01
       H -5.88202e+00 -3.07646e+01 -2.03402e+01
       H -6.24097e+00 -2.98303e+01 -1.91898e+01
       O -2.66285e+01 -1.46952e+01 -7.77083e+00
       H -2.68955e+01 -1.44727e+01 -6.86254e+00
       H -2.58822e+01 -1.41054e+01 -7.97420e+00
       O -6.16103e+00 -1.14627e+01 -1.52209e+01
       H -6.73667e+00 -1.06224e+01 -1.52812e+01
       H -6.58639e+00 -1.18648e+01 -1.44356e+01
       O -2.32347e+01 -5.39103e+01 -2.42989e+01
       H -2.25984e+01 -5.46776e+01 -2.42363e+01
       H -2.32512e+01 -5.34923e+01 -2.34421e+01
       O -1.55381e+01 -1.27051e+01 -4.30193e+01
       H -1.55732e+01 -1.35165e+01 -4.35230e+01
       H -1.46276e+01 -1.28079e+01 -4.27389e+01
       O -8.64434e+00 -4.86061e+00 -3.25652e+01
       H -7.97259e+00 -5.47711e+00 -3.29287e+01
       H -8.34712e+00 -4.02998e+00 -3.29576e+01
       O -3.25681e+01 -2.54258e+01 -9.70371e+00
       H -3.30497e+01 -2.46341e+01 -1.01410e+01
       H -3.27857e+01 -2.52533e+01 -8.75911e+00
       O -1.73245e+01 -9.86492e+00 -1.10510e+01
       H -1.74295e+01 -1.06301e+01 -1.04488e+01
       H -1.76212e+01 -1.01843e+01 -1.19627e+01
       O -1.78652e+01 -1.95497e+01 -1.48079e+01
       H -1.86510e+01 -1.90942e+01 -1.49323e+01
       H -1.78570e+01 -1.95412e+01 -1.38318e+01
       O  1.80097e+00 -4.11724e+00  4.98920e+00
       H  1.38387e+00 -4.98868e+00  5.02486e+00
       H  9.97365e-01 -3.59285e+00  5.02352e+00
       O -2.91052e+00  1.04154e+00  1.09354e+01
       H -2.28838e+00  8.49806e-01  1.02103e+01
       H -3.03515e+00  2.03423e+00  1.07898e+01
       O  1.20462e+00  1.06016e+00 -4.61729e+00
       H  5.10371e-01  1.28978e+00 -5.21240e+00
       H  1.22043e+00  1.78151e+00 -4.01363e+00
       O -1.16557e+01 -6.14561e+00 -9.13874e+00
       H -1.17166e+01 -6.11078e+00 -1.00791e+01
       H -1.23240e+01 -6.81612e+00 -9.00693e+00
       O -1.22560e+01  4.08747e+00 -6.12983e+00
       H -1.18327e+01  3.35063e+00 -5.65792e+00
       H -1.19787e+01  3.87502e+00 -7.05295e+00
       O -1.35056e+01 -1.48922e+01 -6.70324e+00
       H -1.40419e+01 -1.51720e+01 -5.94558e+00
       H -1.28928e+01 -1.42893e+01 -6.24163e+00
       O -1.77343e+01 -2.78494e+01 -2.82371e+01
       H -1.72329e+01 -2.86175e+01 -2.78917e+01
       H -1.86918e+01 -2.81203e+01 -2.81212e+01
       O -1.97735e+01 -3.08289e+01 -1.08348e+01
       H -1.91371e+01 -3.01804e+01 -1.11465e+01
       H -2.05161e+01 -3.03303e+01 -1.11249e+01
       O -2.01652e+01 -3.35337e+01 -7.74610e+00
       H -2.05900e+01 -3.37255e+01 -6.88249e+00
       H -2.02652e+01 -3.44532e+01 -8.14753e+00
       O  3.63604e+00  7.33176e+00 -2.39127e+00
       H  4.17066e+00  6.79847e+00 -2.96478e+00
       H  3.09003e+00  6.67616e+00 -2.02649e+00
       O -1.00266e+01 -3.16165e+01 -2.11863e+01
       H -1.09719e+01 -3.19760e+01 -2.12411e+01
       H -9.73865e+00 -3.16204e+01 -2.02954e+01
       O -1.85259e+00 -3.44485e+00 -2.61500e+01
       H -2.47307e+00 -3.30425e+00 -2.53605e+01
       H -1.99528e+00 -4.41302e+00 -2.63070e+01
       O -2.92062e+01 -1.95261e+01 -9.18268e+00
       H -2.95544e+01 -1.86632e+01 -8.89503e+00
       H -2.93263e+01 -1.99549e+01 -8.30764e+00
       O -1.31497e+01 -4.56348e+01 -2.51203e+01
       H -1.39065e+01 -4.51575e+01 -2.55128e+01
       H -1.31952e+01 -4.53624e+01 -2.41925e+01
       O -4.16011e+00 -2.18443e+01 -9.93137e+00
       H -4.70836e+00 -2.10910e+01 -9.59720e+00
       H -3.34586e+00 -2.15156e+01 -9.46407e+00
       O -7.51729e+00 -1.73605e+01 -2.01592e+01
       H -7.52951e+00 -1.64057e+01 -2.02122e+01
       H -6.90530e+00 -1.75860e+01 -1.93803e+01
       O -1.90655e+01 -3.14570e+01 -5.55688e+00
       H -1.86847e+01 -3.18343e+01 -6.32933e+00
       H -1.83355e+01 -3.14144e+01 -4.98738e+00
       O -3.46366e+01 -1.41470e+01 -1.54222e+01
       H -3.46428e+01 -1.49381e+01 -1.48323e+01
       H -3.39205e+01 -1.41847e+01 -1.61043e+01
       O -2.50166e+01 -2.30431e+01 -2.62414e+01
       H -2.51307e+01 -2.38897e+01 -2.56586e+01
       H -2.49173e+01 -2.35118e+01 -2.71778e+01
       O -2.33209e+01 -3.85841e+00 -1.91736e+01
       H -2.26943e+01 -3.10625e+00 -1.89453e+01
       H -2.26161e+01 -4.54559e+00 -1.92448e+01
       O -2.18495e+01 -1.45889e+01 -1.43144e+01
       H -2.26587e+01 -1.41514e+01 -1.42255e+01
       H -2.16068e+01 -1.46815e+01 -1.34097e+01
       O -2.11265e+01 -2.64754e+01  4.47454e+00
       H -2.08679e+01 -2.58276e+01  3.80211e+00
       H -2.02856e+01 -2.70452e+01  4.43257e+00
       O  1.30784e+00 -1.65900e+01 -8.25684e+00
       H  1.66434e+00 -1.62184e+01 -7.44300e+00
       H  2.00681e+00 -1.71706e+01 -8.48569e+00
       O -1.88498e+01 -2.34018e+01 -2.85193e+01
       H -1.84079e+01 -2.41142e+01 -2.80720e+01
       H -1.96517e+01 -2.32867e+01 -2.80009e+01
       O -1.83563e+01 -1.89033e+01 -2.93549e+01
       H -1.88374e+01 -1.84595e+01 -2.86224e+01
       H -1.78091e+01 -1.93689e+01 -2.87755e+01
       O -3.03835e+01 -3.23590e+01 -4.09851e+00
       H -3.03931e+01 -3.28138e+01 -3.28884e+00
       H -3.12840e+01 -3.19297e+01 -4.19954e+00
       O -2.60860e+01 -2.59077e+01 -3.61817e+01
       H -2.69886e+01 -2.61232e+01 -3.59482e+01
       H -2.55986e+01 -2.67397e+01 -3.59641e+01
       O -2.20202e+00 -1.46003e+01  9.88134e+00
       H -1.93685e+00 -1.54351e+01  9.46298e+00
       H -1.37480e+00 -1.44505e+01  1.04312e+01
       O -3.84984e+01 -9.88802e+00 -2.35900e+00
       H -3.75561e+01 -9.96509e+00 -2.37961e+00
       H -3.87040e+01 -1.05588e+01 -3.04013e+00
       O -1.86769e+01 -2.06397e+01 -1.40910e+00
       H -1.80176e+01 -2.01948e+01 -8.57332e-01
       H -1.95253e+01 -2.01857e+01 -1.33005e+00
       O -2.55948e+01 -2.61782e+01 -2.85626e+01
       H -2.47146e+01 -2.57664e+01 -2.81687e+01
       H -2.55506e+01 -2.59613e+01 -2.95087e+01
       O -8.15469e+00 -2.08099e+01 -1.08438e+01
       H -8.70631e+00 -2.06510e+01 -1.15916e+01
       H -7.26766e+00 -2.08760e+01 -1.12901e+01
       O -1.15188e+01 -1.74052e+01 -1.38695e+01
       H -1.24416e+01 -1.75768e+01 -1.35960e+01
       H -1.15080e+01 -1.79735e+01 -1.46354e+01
       O -2.21920e+01  1.36315e+01 -1.37023e+01
       H -2.15524e+01  1.36381e+01 -1.44007e+01
       H -2.16727e+01  1.41127e+01 -1.29967e+01
       O -8.97243e+00 -2.83067e+01 -2.23675e+01
       H -9.58873e+00 -2.90154e+01 -2.20930e+01
       H -9.61767e+00 -2.75394e+01 -2.25116e+01
       O -6.87092e+00 -2.52174e+01 -3.79253e+01
       H -7.25860e+00 -2.53902e+01 -3.87422e+01
       H -7.48701e+00 -2.57614e+01 -3.73740e+01
       O -9.77336e+00 -2.70519e+01 -1.53063e+01
       H -1.04852e+01 -2.73365e+01 -1.59978e+01
       H -1.03152e+01 -2.70298e+01 -1.45053e+01
       O -1.09340e+01  4.40583e-01 -1.82091e+01
       H -1.14134e+01  1.22067e+00 -1.80642e+01
       H -1.16235e+01 -2.40215e-01 -1.79998e+01
       O -1.98833e+01 -2.13308e+01 -3.28143e+01
       H -1.96412e+01 -2.04833e+01 -3.23222e+01
       H -1.92062e+01 -2.19144e+01 -3.23926e+01
       O -4.40603e+01 -2.79117e+01 -1.38392e+01
       H -4.35701e+01 -2.78807e+01 -1.47476e+01
       H -4.49473e+01 -2.79317e+01 -1.41256e+01
       O -1.41292e+01 -2.38067e+01  8.84203e+00
       H -1.42964e+01 -2.29508e+01  8.39495e+00
       H -1.33552e+01 -2.41599e+01  8.36259e+00
       O -5.82500e+00 -7.86128e+00 -2.90685e+00
       H -6.56937e+00 -7.22344e+00 -3.03403e+00
       H -5.40242e+00 -7.58475e+00 -2.03755e+00
       O -1.22288e+01 -2.17898e+01 -1.32110e+01
       H -1.14567e+01 -2.12116e+01 -1.34350e+01
       H -1.27741e+01 -2.13241e+01 -1.25497e+01
       O  5.22937e+00 -1.08003e+01  1.39689e+01
       H  4.31469e+00 -1.06443e+01  1.36974e+01
       H  5.45805e+00 -9.89469e+00  1.43417e+01
       O -8.24946e+00 -1.78596e+00 -9.19422e+00
       H -8.43969e+00 -2.71462e+00 -9.37066e+00
       H -9.13397e+00 -1.40215e+00 -9.31886e+00
       O  4.12832e+00  9.22609e+00  2.24166e+00
       H  3.56277e+00  8.37168e+00  2.21082e+00
       H  3.70526e+00  9.93408e+00  1.71305e+00
       O -1.38734e+01 -9.84195e+00 -2.89942e+01
       H -1.30447e+01 -1.03587e+01 -2.91855e+01
       H -1.37300e+01 -8.88910e+00 -2.92104e+01
       O -5.01868e+00 -1.16080e+01 -2.80192e+01
       H -5.78436e+00 -1.21028e+01 -2.76697e+01
       H -5.23117e+00 -1.16863e+01 -2.90129e+01
       O -1.44676e+01 -1.27290e+01 -2.75149e+01
       H -1.49211e+01 -1.25083e+01 -2.82843e+01
       H -1.36017e+01 -1.29315e+01 -2.78540e+01
       O -1.80496e+01 -2.65765e+01 -3.17477e+01
       H -1.85512e+01 -2.60214e+01 -3.23619e+01
       H -1.76472e+01 -2.59968e+01 -3.11362e+01
       O -6.01309e+00 -1.36823e+00  2.24368e+00
       H -6.62175e+00 -1.25605e+00  1.46007e+00
       H -5.29933e+00 -7.14435e-01  2.13512e+00
       O -1.55430e+01 -2.08490e+01 -4.78771e+00
       H -1.54725e+01 -2.17882e+01 -4.74340e+00
       H -1.64698e+01 -2.07853e+01 -4.68552e+00
       O -5.33899e+00 -5.27971e+00 -1.19306e+01
       H -5.62867e+00 -6.00971e+00 -1.24918e+01
       H -6.22105e+00 -4.89774e+00 -1.16760e+01
       O -3.82971e+00 -1.29276e+01 -6.38693e+00
       H -3.28643e+00 -1.23274e+01 -6.97762e+00
       H -4.63105e+00 -1.30044e+01 -6.90682e+00
       O  1.35778e+01  1.11936e+01 -2.74520e+01
       H  1.29542e+01  1.05889e+01 -2.78207e+01
       H  1.31568e+01  1.15697e+01 -2.66624e+01
       O -2.43553e+01 -1.88706e+01 -7.84784e+00
       H -2.43842e+01 -1.79058e+01 -8.08588e+00
       H -2.53434e+01 -1.90287e+01 -7.81946e+00
       O -2.03163e+01 -3.34681e+01 -1.11571e+01
       H -2.04332e+01 -3.24845e+01 -1.10868e+01
       H -2.10498e+01 -3.37891e+01 -1.05790e+01
       O -7.67209e+00 -2.25816e+01 -7.54745e+00
       H -7.44306e+00 -2.34424e+01 -7.14630e+00
       H -8.53228e+00 -2.27858e+01 -7.96261e+00
       O -7.67459e+00 -2.54455e+01 -1.88405e+01
       H -8.22350e+00 -2.47788e+01 -1.92183e+01
       H -7.59865e+00 -2.59710e+01 -1.96580e+01
       O -1.82826e+01 -6.69129e+00 -1.64559e+01
       H -1.80853e+01 -6.51256e+00 -1.54803e+01
       H -1.74739e+01 -7.16087e+00 -1.67854e+01
       O -1.93540e+01 -2.95084e+01 -1.91013e+01
       H -1.98740e+01 -2.94769e+01 -1.99607e+01
       H -1.98417e+01 -2.89052e+01 -1.84799e+01
       O -1.19097e+01 -4.03446e+00 -7.14300e+00
       H -1.13673e+01 -4.65285e+00 -7.61506e+00
       H -1.14235e+01 -3.96827e+00 -6.29260e+00
       O -2.06712e+01 -4.22336e+01 -4.47289e+01
       H -2.12523e+01 -4.29563e+01 -4.44379e+01
       H -1.99782e+01 -4.21506e+01 -4.40268e+01
       O -1.81897e+01 -1.84654e+01 -9.93473e+00
       H -1.90869e+01 -1.82793e+01 -9.59094e+00
       H -1.78687e+01 -1.90433e+01 -9.25331e+00
       O -1.62545e+01 -3.47793e+01 -2.17714e+01
       H -1.54831e+01 -3.52718e+01 -2.14048e+01
       H -1.64846e+01 -3.42404e+01 -2.09773e+01
       O -1.64697e+01 -1.16760e+01 -8.69787e+00
       H -1.68164e+01 -1.26025e+01 -8.76819e+00
       H -1.59123e+01 -1.17197e+01 -7.87875e+00
       O -2.39410e+01 -1.71974e+01 -2.42049e+01
       H -2.48714e+01 -1.75399e+01 -2.42702e+01
       H -2.34302e+01 -1.79262e+01 -2.38309e+01
       O -1.05467e+01 -1.59216e+01 -4.91057e+00
       H -1.04006e+01 -1.69316e+01 -5.10379e+00
       H -1.11646e+01 -1.60865e+01 -4.17719e+00
       O -5.66769e+00 -2.90990e+01 -4.03457e+01
       H -5.58894e+00 -2.90438e+01 -3.93719e+01
       H -4.92271e+00 -2.86327e+01 -4.07058e+01
       O -2.81800e+00 -2.11379e+01 -1.81921e+01
       H -2.82208e+00 -2.16743e+01 -1.73670e+01
       H -3.66318e+00 -2.11935e+01 -1.86364e+01
       O -1.55770e+01 -1.50832e+01 -1.63561e+01
       H -1.60723e+01 -1.42480e+01 -1.63931e+01
       H -1.60182e+01 -1.53924e+01 -1.55123e+01
       O -2.51028e+01 -9.81582e+00 -1.80587e+01
       H -2.42046e+01 -9.43289e+00 -1.82617e+01
       H -2.57267e+01 -9.18784e+00 -1.84166e+01
       O -2.18742e+00  1.52399e+00 -1.83547e+01
       H -2.77806e+00  1.79682e+00 -1.76217e+01
       H -1.76255e+00  6.89710e-01 -1.80366e+01
       O -2.34265e-01 -1.70160e-01  3.03120e+00
       H -5.90403e-01 -6.06506e-01  3.85158e+00
       H  2.69953e-01 -8.89164e-01  2.58410e+00
       O -1.75687e+01 -1.81049e+01  5.99077e+00
       H -1.76968e+01 -1.82874e+01  6.91641e+00
       H -1.83920e+01 -1.76288e+01  5.84991e+00
       O -2.15762e+01 -1.22168e+01 -6.70049e+00
       H -2.18420e+01 -1.13126e+01 -6.54001e+00
       H -2.06027e+01 -1.22186e+01 -6.47406e+00
       O -2.96538e+01 -1.50555e+01 -9.90262e+00
       H -2.92854e+01 -1.59295e+01 -1.01352e+01
       H -3.00210e+01 -1.51509e+01 -9.02154e+00
       O -4.18218e+00 -1.17842e+01 -3.90616e+00
       H -5.09025e+00 -1.15664e+01 -3.76332e+00
       H -4.27752e+00 -1.21445e+01 -4.78366e+00
       O -2.45992e+01 -1.96543e+01 -4.39520e+01
       H -2.37406e+01 -2.02032e+01 -4.38887e+01
       H -2.42161e+01 -1.89172e+01 -4.34102e+01
       O -7.90249e+00 -2.45075e+01 -1.05641e+01
       H -8.38766e+00 -2.42224e+01 -9.78783e+00
       H -8.33935e+00 -2.53510e+01 -1.08105e+01
       O -1.97394e+00 -1.38396e+01 -2.34404e+01
       H -2.21999e+00 -1.30103e+01 -2.38282e+01
       H -2.04032e+00 -1.44301e+01 -2.42398e+01
       O -5.21724e+01 -1.32401e+01  2.85040e+00
       H -5.12064e+01 -1.29906e+01  2.98264e+00
       H -5.25020e+01 -1.32075e+01  3.79735e+00
       O -4.33909e+00 -1.72542e+01 -1.01222e+01
       H -3.57717e+00 -1.70233e+01 -1.06049e+01
       H -3.95485e+00 -1.78057e+01 -9.44054e+00
       O -1.63178e+01 -1.53240e+01  2.14720e+01
       H -1.64551e+01 -1.53945e+01  2.04591e+01
       H -1.53962e+01 -1.52550e+01  2.15380e+01
       O -9.94417e+00 -3.69709e+01 -3.77811e+01
       H -9.18671e+00 -3.69701e+01 -3.83759e+01
       H -1.06847e+01 -3.68999e+01 -3.84039e+01
       O -1.36044e+01 -1.94507e+01 -1.20901e+01
       H -1.37443e+01 -1.88695e+01 -1.13307e+01
       H -1.37714e+01 -1.88117e+01 -1.27925e+01
       O -1.33992e+01 -1.50571e+01  1.19974e+01
       H -1.26248e+01 -1.54943e+01  1.24496e+01
       H -1.38496e+01 -1.48191e+01  1.27881e+01
       O -1.34092e+01 -7.05729e+00 -4.04974e+00
       H -1.34648e+01 -6.42379e+00 -4.81463e+00
       H -1.40354e+01 -6.65927e+00 -3.51254e+00
       O -3.07619e+01 -8.61873e+00 -1.32037e+00
       H -3.15722e+01 -8.19516e+00 -9.45166e-01
       H -3.11630e+01 -9.25162e+00 -1.89318e+00
       O -1.60867e+01 -2.18483e+01 -2.80098e+01
       H -1.56305e+01 -2.23951e+01 -2.73654e+01
       H -1.70344e+01 -2.18635e+01 -2.77065e+01
       O -1.18210e+01 -7.38339e+00 -6.02438e-01
       H -1.23398e+01 -7.95570e+00 -9.97455e-02
       H -1.15912e+01 -7.93053e+00 -1.37504e+00
       O -1.28640e+01 -3.46719e+01 -2.15948e+00
       H -1.35833e+01 -3.52063e+01 -2.40579e+00
       H -1.21193e+01 -3.52221e+01 -2.38213e+00
       O -9.05272e+00 -3.78317e+01 -8.85318e+00
       H -8.59613e+00 -3.87081e+01 -8.62366e+00
       H -8.24984e+00 -3.72616e+01 -9.11866e+00
       O -5.52660e+00 -6.56978e+00 -3.43541e-01
       H -5.80579e+00 -5.60250e+00 -2.39044e-01
       H -5.90649e+00 -7.02471e+00  4.26824e-01
       O -2.42228e+01 -2.89323e+01 -1.81638e+00
       H -2.38843e+01 -2.97667e+01 -1.39268e+00
       H -2.47515e+01 -2.85702e+01 -1.09839e+00
       O  5.61367e+00  1.79118e+00  3.42971e+00
       H  6.40331e+00  1.89459e+00  4.01980e+00
       H  6.05290e+00  1.54023e+00  2.61960e+00
       O -1.60381e+01 -2.62038e+01 -9.91419e+00
       H -1.64492e+01 -2.53593e+01 -9.70071e+00
       H -1.62411e+01 -2.68145e+01 -9.13783e+00
       O -2.10378e+01 -2.26798e+01 -7.49056e+00
       H -2.01728e+01 -2.30498e+01 -7.25249e+00
       H -2.08622e+01 -2.21642e+01 -8.29990e+00
       O -2.17239e+01 -2.87715e+01 -1.43171e+01
       H -2.21232e+01 -2.96543e+01 -1.44796e+01
       H -2.15523e+01 -2.88096e+01 -1.33591e+01
       O -4.47980e+00 -6.32503e+00 -6.27116e+00
       H -4.17345e+00 -6.76721e+00 -7.10005e+00
       H -5.03060e+00 -7.05813e+00 -5.96750e+00
       O -7.05781e+00 -1.50575e+01 -1.13387e+01
       H -6.59289e+00 -1.51170e+01 -1.21909e+01
       H -7.53779e+00 -1.58759e+01 -1.13452e+01
       O -1.70024e+01 -2.36289e+01 -9.94693e+00
       H -1.61549e+01 -2.32936e+01 -9.99640e+00
       H -1.74152e+01 -2.28961e+01 -1.04341e+01
       O  5.83127e-01 -1.77597e+01 -3.55574e+00
       H  4.49647e-01 -1.79436e+01 -2.59652e+00
       H -2.50752e-01 -1.80867e+01 -3.97335e+00
       O -1.06556e+01 -2.86763e+01 -1.29676e+01
       H -1.12612e+01 -2.92095e+01 -1.24768e+01
       H -1.01088e+01 -2.92837e+01 -1.35000e+01
       O -1.03413e+01 -1.47624e+01 -2.15504e+01
       H -1.08055e+01 -1.50033e+01 -2.23958e+01
       H -1.02122e+01 -1.38437e+01 -2.17226e+01
       O -2.40446e+01 -2.73349e+00 -6.82080e+00
       H -2.34295e+01 -3.13377e+00 -6.15578e+00
       H -2.49402e+01 -3.09412e+00 -6.54976e+00
       O -8.04563e+00 -2.39486e+00 -6.30805e+00
       H -7.75201e+00 -2.67305e+00 -7.19458e+00
       H -7.28769e+00 -1.72117e+00 -6.07778e+00
       O -2.36630e+01  9.78075e-01 -9.49552e+00
       H -2.44055e+01  1.34710e+00 -1.00056e+01
       H -2.39567e+01  5.41272e-02 -9.16299e+00
       O -8.89114e+00  1.13359e+00 -1.61640e+01
       H -9.49037e+00  1.07233e+00 -1.69743e+01
       H -9.28897e+00  5.60480e-01 -1.55293e+01
       O -2.26443e+01 -6.43458e+00 -6.02494e+00
       H -2.19379e+01 -7.05336e+00 -6.34566e+00
       H -2.21280e+01 -5.68009e+00 -5.57835e+00
       O -1.58130e+01 -1.85257e+01 -1.77716e+00
       H -1.60328e+01 -1.88567e+01 -9.01621e-01
       H -1.64744e+01 -1.88827e+01 -2.27110e+00
       O  3.35642e+00  6.55272e+00  1.52171e+00
       H  3.27418e+00  5.82763e+00  2.18518e+00
       H  4.23513e+00  6.39419e+00  1.17072e+00
       O -2.65799e+01 -1.57444e+01 -3.40268e+00
       H -2.68647e+01 -1.64957e+01 -2.77226e+00
       H -2.61066e+01 -1.61584e+01 -4.14424e+00
       O -7.56466e+00 -2.16345e+01 -3.22001e+01
       H -7.54851e+00 -2.07024e+01 -3.18439e+01
       H -8.12203e+00 -2.15682e+01 -3.30060e+01
       O -2.12476e+00 -1.12674e+01 -1.58978e+01
       H -1.58516e+00 -1.20514e+01 -1.56021e+01
       H -1.94236e+00 -1.06568e+01 -1.51878e+01
       O -6.84778e+00 -1.86752e+01 -9.26722e-01
       H -6.53265e+00 -1.77483e+01 -7.68760e-01
       H -7.41933e+00 -1.87532e+01 -9.18815e-02
       O -2.54802e+01 -1.57639e+01 -1.33922e+01
       H -2.56497e+01 -1.61161e+01 -1.24431e+01
       H -2.60780e+01 -1.63691e+01 -1.39097e+01
       O -1.25679e+01 -1.21796e+01 -2.27329e+01
       H -1.31290e+01 -1.21576e+01 -2.35083e+01
       H -1.27423e+01 -1.29905e+01 -2.23378e+01
       O -2.25995e+01 -1.49311e+01 -1.00606e+01
       H -2.23816e+01 -1.44113e+01 -1.08372e+01
       H -2.17021e+01 -1.49418e+01 -9.60900e+00
       O -9.42460e+00 -2.42559e+01 -1.44035e+01
       H -9.81797e+00 -2.38783e+01 -1.51736e+01
       H -8.96481e+00 -2.50313e+01 -1.47824e+01
       O -2.10054e+01  6.40270e+00 -1.92551e+01
       H -2.18992e+01  6.48549e+00 -1.94909e+01
       H -2.07180e+01  7.26513e+00 -1.90882e+01
       O  4.51702e+00 -2.00461e+01 -1.96343e+01
       H  5.00719e+00 -2.03144e+01 -2.04541e+01
       H  4.94248e+00 -1.91602e+01 -1.95495e+01
       O -6.87625e+00 -3.09343e+01 -8.95329e+00
       H -6.31991e+00 -3.04591e+01 -9.54100e+00
       H -7.07979e+00 -3.17658e+01 -9.44867e+00
       O -1.72011e+01 -1.15253e+01  1.10036e+00
       H -1.69122e+01 -1.09108e+01  4.02882e-01
       H -1.65427e+01 -1.12637e+01  1.76720e+00
       O -1.45283e+01 -2.55225e+01 -1.59393e+01
       H -1.53451e+01 -2.56805e+01 -1.63963e+01
       H -1.47730e+01 -2.50495e+01 -1.51393e+01
       O -4.60868e+00 -1.81441e+01 -2.37986e+01
       H -4.37174e+00 -1.76408e+01 -2.29446e+01
       H -4.74298e+00 -1.74669e+01 -2.45160e+01
       O -3.94431e+01 -2.64611e+01 -2.71635e+01
       H -3.91067e+01 -2.71951e+01 -2.65637e+01
       H -3.87532e+01 -2.57856e+01 -2.71724e+01
       O -3.82184e+01 -1.97264e+01 -9.88099e+00
       H -3.74021e+01 -1.93252e+01 -1.01014e+01
       H -3.83003e+01 -2.04529e+01 -1.05435e+01
       O -8.91314e-01 -4.45181e+00  1.62816e+00
       H -1.39072e+00 -4.26191e+00  2.45758e+00
       H -3.63393e-01 -3.62413e+00  1.65624e+00
       O -8.59755e+00 -1.98492e+01 -4.28550e+01
       H -8.47438e+00 -2.07340e+01 -4.32149e+01
       H -9.14678e+00 -1.94293e+01 -4.35078e+01
       O -8.22288e+00 -2.76737e+01 -3.00704e+01
       H -8.69491e+00 -2.73058e+01 -2.92983e+01
       H -9.03371e+00 -2.82701e+01 -3.03971e+01
       O -7.73057e+00 -1.32740e+01  4.52015e+00
       H -7.27642e+00 -1.40465e+01  4.14104e+00
       H -7.00192e+00 -1.26273e+01  4.70194e+00
       O -3.95593e+01 -8.83538e+00 -6.04819e+00
       H -3.93562e+01 -7.95783e+00 -5.62020e+00
       H -3.97037e+01 -8.52947e+00 -6.97593e+00
       O -2.33375e+01 -1.60207e+01 -2.93384e+00
       H -2.24352e+01 -1.61546e+01 -3.23642e+00
       H -2.38516e+01 -1.64847e+01 -3.60222e+00
       O -2.81821e+01  1.24173e+01 -8.73540e+00
       H -2.83868e+01  1.31343e+01 -9.37690e+00
       H -2.90286e+01  1.21018e+01 -8.40897e+00
       O  4.97180e+00 -2.43053e+00  9.93403e-01
       H  4.58402e+00 -3.22627e+00  1.35055e+00
       H  4.17388e+00 -1.88476e+00  9.25277e-01
       O -7.52851e+00 -3.79346e+00  3.05003e+00
       H -8.49507e+00 -3.78220e+00  2.93847e+00
       H -7.38134e+00 -2.91211e+00  2.68660e+00
       O -1.42851e+01 -1.77700e+01 -1.41145e+01
       H -1.48872e+01 -1.71972e+01 -1.36001e+01
       H -1.48408e+01 -1.81013e+01 -1.48519e+01
       O -4.34474e+01 -1.73396e+01  8.93888e+00
       H -4.30215e+01 -1.66416e+01  9.38602e+00
       H -4.29220e+01 -1.73947e+01  8.13670e+00
       O -2.01327e+01  5.41118e+00 -2.30895e+01
       H -1.97816e+01  5.49328e+00 -2.39854e+01
       H -2.01118e+01  6.35084e+00 -2.27418e+01
       O -1.11811e+01 -1.88080e+01 -2.71221e+01
       H -1.12155e+01 -1.91521e+01 -2.79656e+01
       H -1.21417e+01 -1.88617e+01 -2.69602e+01
       O -8.66281e+00 -1.86592e+01  1.48042e+00
       H -8.95341e+00 -1.77183e+01  1.76792e+00
       H -9.36990e+00 -1.90317e+01  9.53085e-01
       O -1.06897e+01 -5.81843e+00 -2.16787e+01
       H -1.11119e+01 -6.68957e+00 -2.14567e+01
       H -9.86368e+00 -6.21481e+00 -2.20573e+01
       O -1.44894e+01 -9.82640e+00 -1.00237e+01
       H -1.42785e+01 -1.04701e+01 -1.07143e+01
       H -1.53454e+01 -1.02299e+01 -9.73364e+00
       O -1.41353e+01 -1.47119e+01  5.23548e-01
       H -1.35327e+01 -1.51086e+01  1.16164e+00
       H -1.36376e+01 -1.43534e+01 -1.92896e-01
       O -2.80976e+01  6.48130e-01 -2.10461e+01
       H -2.87514e+01  6.45311e-02 -2.05848e+01
       H -2.73532e+01  5.22518e-02 -2.11717e+01
       O -3.20822e+01 -2.01394e+01 -8.07016e+00
       H -3.11883e+01 -2.05041e+01 -7.84058e+00
       H -3.26220e+01 -2.04445e+01 -7.35667e+00
       O -1.81703e+01 -2.91054e+01 -1.22170e+01
       H -1.83094e+01 -2.84559e+01 -1.29206e+01
       H -1.71904e+01 -2.90165e+01 -1.22234e+01
       O -7.51050e+00 -1.81470e+01 -3.43539e+01
       H -7.22231e+00 -1.76122e+01 -3.50061e+01
       H -7.23241e+00 -1.89853e+01 -3.46283e+01
       O -1.71598e+01 -1.57895e+01 -5.82399e+00
       H -1.69958e+01 -1.67038e+01 -6.16868e+00
       H -1.62402e+01 -1.57376e+01 -5.46555e+00
       O -2.17009e+01 -2.63294e+01 -3.18562e+01
       H -2.12662e+01 -2.56009e+01 -3.13904e+01