6
# CELL(abcABC): 1000.00000  1000.00000  1000.00000    90.00000    90.00000    90.00000  Step:         546  Bead:       0 positions{angstrom}  cell{angstrom}
       C -1.16767e+00  2.23630e+00 -6.29464e-02
       H -4.66032e-01  1.87207e+00 -8.71698e-01
       H -8.65488e-01  1.77062e+00  8.79399e-01
       H -2.16134e+00  2.03664e+00 -3.69723e-01
       O -1.08610e+00  3.68286e+00  2.15380e-02
       H -1.86306e+00  4.05433e+00  4.56524e-01
