4
# CELL(abcABC): 1000.00000  1000.00000  1000.00000    90.00000    90.00000    90.00000  Step:           0  Bead:       0 positions{angstrom}  cell{angstrom}
       O -3.13938e+00  1.06424e+00  3.68432e-01
       H -4.00814e+00  7.41412e-01  1.46635e-01
       H -2.56199e+00  3.43093e-01  2.00430e-01
       H -2.98314e+00  2.09288e+00  4.90332e-01
4
# CELL(abcABC): 1000.00000  1000.00000  1000.00000    90.00000    90.00000    90.00000  Step:           1  Bead:       0 positions{angstrom}  cell{angstrom}
       O -3.13778e+00  1.06460e+00  3.67864e-01
       H -4.01845e+00  7.33923e-01  1.50920e-01
       H -2.56045e+00  3.41142e-01  2.01406e-01
       H -2.99982e+00  2.09659e+00  4.94091e-01
4
# CELL(abcABC): 1000.00000  1000.00000  1000.00000    90.00000    90.00000    90.00000  Step:           2  Bead:       0 positions{angstrom}  cell{angstrom}
       O -3.13651e+00  1.06505e+00  3.67221e-01
       H -4.02862e+00  7.26573e-01  1.56154e-01
       H -2.55469e+00  3.36810e-01  2.02073e-01
       H -3.01554e+00  2.10120e+00  4.98397e-01
4
# CELL(abcABC): 1000.00000  1000.00000  1000.00000    90.00000    90.00000    90.00000  Step:           3  Bead:       0 positions{angstrom}  cell{angstrom}
       O -3.13550e+00  1.06557e+00  3.66415e-01
       H -4.03658e+00  7.18390e-01  1.63902e-01
       H -2.54717e+00  3.31987e-01  2.03254e-01
       H -3.03114e+00  2.10596e+00  5.02258e-01
4
# CELL(abcABC): 1000.00000  1000.00000  1000.00000    90.00000    90.00000    90.00000  Step:           4  Bead:       0 positions{angstrom}  cell{angstrom}
       O -3.13482e+00  1.06611e+00  3.65591e-01
       H -4.04209e+00  7.09616e-01  1.71467e-01
       H -2.53775e+00  3.27177e-01  2.04090e-01
       H -3.04579e+00  2.11089e+00  5.06939e-01
4
# CELL(abcABC): 1000.00000  1000.00000  1000.00000    90.00000    90.00000    90.00000  Step:           5  Bead:       0 positions{angstrom}  cell{angstrom}
       O -3.13435e+00  1.06645e+00  3.64701e-01
       H -4.04498e+00  7.01636e-01  1.79746e-01
       H -2.52852e+00  3.23911e-01  2.06271e-01
       H -3.05956e+00  2.11670e+00  5.10611e-01
4
# CELL(abcABC): 1000.00000  1000.00000  1000.00000    90.00000    90.00000    90.00000  Step:           6  Bead:       0 positions{angstrom}  cell{angstrom}
       O -3.13406e+00  1.06674e+00  3.63740e-01
       H -4.04400e+00  6.94758e-01  1.88044e-01
       H -2.52016e+00  3.20212e-01  2.07965e-01
       H -3.07356e+00  2.12276e+00  5.15867e-01
4
# CELL(abcABC): 1000.00000  1000.00000  1000.00000    90.00000    90.00000    90.00000  Step:           7  Bead:       0 positions{angstrom}  cell{angstrom}
       O -3.13406e+00  1.06675e+00  3.62482e-01
       H -4.03775e+00  6.88687e-01  1.98498e-01
       H -2.51285e+00  3.17959e-01  2.11110e-01
       H -3.08714e+00  2.13083e+00  5.22238e-01
4
# CELL(abcABC): 1000.00000  1000.00000  1000.00000    90.00000    90.00000    90.00000  Step:           8  Bead:       0 positions{angstrom}  cell{angstrom}
       O -3.13433e+00  1.06660e+00  3.61179e-01
       H -4.02717e+00  6.83192e-01  2.08974e-01
       H -2.50584e+00  3.16981e-01  2.14369e-01
       H -3.10045e+00  2.13968e+00  5.29180e-01
4
# CELL(abcABC): 1000.00000  1000.00000  1000.00000    90.00000    90.00000    90.00000  Step:           9  Bead:       0 positions{angstrom}  cell{angstrom}
       O -3.13474e+00  1.06638e+00  3.59663e-01
       H -4.01414e+00  6.76999e-01  2.20992e-01
       H -2.49940e+00  3.18598e-01  2.19036e-01
       H -3.11334e+00  2.14788e+00  5.36568e-01
4
# CELL(abcABC): 1000.00000  1000.00000  1000.00000    90.00000    90.00000    90.00000  Step:          10  Bead:       0 positions{angstrom}  cell{angstrom}
       O -3.13517e+00  1.06595e+00  3.58203e-01
       H -3.99974e+00  6.70375e-01  2.32365e-01
       H -2.49453e+00  3.23406e-01  2.23774e-01
       H -3.12580e+00  2.15648e+00  5.43632e-01
4
# CELL(abcABC): 1000.00000  1000.00000  1000.00000    90.00000    90.00000    90.00000  Step:          11  Bead:       0 positions{angstrom}  cell{angstrom}
       O -3.13552e+00  1.06546e+00  3.56848e-01
       H -3.98523e+00  6.63446e-01  2.42245e-01
       H -2.49258e+00  3.30245e-01  2.28815e-01
       H -3.13670e+00  2.16430e+00  5.50210e-01
4
# CELL(abcABC): 1000.00000  1000.00000  1000.00000    90.00000    90.00000    90.00000  Step:          12  Bead:       0 positions{angstrom}  cell{angstrom}
       O -3.13587e+00  1.06504e+00  3.55565e-01
       H -3.97099e+00  6.54711e-01  2.51343e-01
       H -2.49201e+00  3.37729e-01  2.33433e-01
       H -3.14604e+00  2.17222e+00  5.56862e-01
4
# CELL(abcABC): 1000.00000  1000.00000  1000.00000    90.00000    90.00000    90.00000  Step:          13  Bead:       0 positions{angstrom}  cell{angstrom}
       O -3.13609e+00  1.06473e+00  3.54287e-01
       H -3.95967e+00  6.44367e-01  2.60048e-01
       H -2.49093e+00  3.46396e-01  2.38485e-01
       H -3.15487e+00  2.17885e+00  5.63386e-01
4
# CELL(abcABC): 1000.00000  1000.00000  1000.00000    90.00000    90.00000    90.00000  Step:          14  Bead:       0 positions{angstrom}  cell{angstrom}
       O -3.13618e+00  1.06456e+00  3.53015e-01
       H -3.95092e+00  6.31167e-01  2.68486e-01
       H -2.48957e+00  3.56420e-01  2.43790e-01
       H -3.16365e+00  2.18471e+00  5.69846e-01
4
# CELL(abcABC): 1000.00000  1000.00000  1000.00000    90.00000    90.00000    90.00000  Step:          15  Bead:       0 positions{angstrom}  cell{angstrom}
       O -3.13601e+00  1.06449e+00  3.51577e-01
       H -3.94851e+00  6.14766e-01  2.78440e-01
       H -2.48838e+00  3.67104e-01  2.49419e-01
       H -3.16993e+00  2.19147e+00  5.77088e-01
4
# CELL(abcABC): 1000.00000  1000.00000  1000.00000    90.00000    90.00000    90.00000  Step:          16  Bead:       0 positions{angstrom}  cell{angstrom}
       O -3.13578e+00  1.06459e+00  3.50190e-01
       H -3.94879e+00  5.95738e-01  2.87568e-01
       H -2.48620e+00  3.78312e-01  2.55084e-01
       H -3.17541e+00  2.19781e+00  5.84307e-01
4
# CELL(abcABC): 1000.00000  1000.00000  1000.00000    90.00000    90.00000    90.00000  Step:          17  Bead:       0 positions{angstrom}  cell{angstrom}
       O -3.13548e+00  1.06490e+00  3.48854e-01
       H -3.95090e+00  5.75649e-01  2.96562e-01
       H -2.48318e+00  3.88979e-01  2.59596e-01
       H -3.18112e+00  2.20220e+00  5.92011e-01
4
# CELL(abcABC): 1000.00000  1000.00000  1000.00000    90.00000    90.00000    90.00000  Step:          18  Bead:       0 positions{angstrom}  cell{angstrom}
       O -3.13528e+00  1.06534e+00  3.47578e-01
       H -3.95516e+00  5.55786e-01  3.05471e-01
       H -2.47656e+00  3.97864e-01  2.63673e-01
       H -3.18670e+00  2.20628e+00  5.99277e-01
4
# CELL(abcABC): 1000.00000  1000.00000  1000.00000    90.00000    90.00000    90.00000  Step:          19  Bead:       0 positions{angstrom}  cell{angstrom}
       O -3.13540e+00  1.06598e+00  3.46358e-01
       H -3.95854e+00  5.36180e-01  3.14605e-01
       H -2.46801e+00  4.04186e-01  2.66618e-01
       H -3.18981e+00  2.20939e+00  6.06565e-01
4
# CELL(abcABC): 1000.00000  1000.00000  1000.00000    90.00000    90.00000    90.00000  Step:          20  Bead:       0 positions{angstrom}  cell{angstrom}
       O -3.13584e+00  1.06676e+00  3.45283e-01
       H -3.96006e+00  5.18297e-01  3.22060e-01
       H -2.45791e+00  4.08794e-01  2.69278e-01
       H -3.19151e+00  2.21024e+00  6.13511e-01
4
# CELL(abcABC): 1000.00000  1000.00000  1000.00000    90.00000    90.00000    90.00000  Step:          21  Bead:       0 positions{angstrom}  cell{angstrom}
       O -3.13669e+00  1.06757e+00  3.44386e-01
       H -3.95927e+00  5.01894e-01  3.27942e-01
       H -2.44416e+00  4.12611e-01  2.72351e-01
       H -3.19252e+00  2.21000e+00  6.18791e-01
4
# CELL(abcABC): 1000.00000  1000.00000  1000.00000    90.00000    90.00000    90.00000  Step:          22  Bead:       0 positions{angstrom}  cell{angstrom}
       O -3.13794e+00  1.06825e+00  3.43708e-01
       H -3.95625e+00  4.87117e-01  3.34262e-01
       H -2.42699e+00  4.16120e-01  2.73302e-01
       H -3.19283e+00  2.21056e+00  6.22283e-01
4
# CELL(abcABC): 1000.00000  1000.00000  1000.00000    90.00000    90.00000    90.00000  Step:          23  Bead:       0 positions{angstrom}  cell{angstrom}
       O -3.13951e+00  1.06877e+00  3.43354e-01
       H -3.94941e+00  4.75716e-01  3.39428e-01
       H -2.40870e+00  4.20539e-01  2.74159e-01
       H -3.19301e+00  2.20926e+00  6.21890e-01
4
# CELL(abcABC): 1000.00000  1000.00000  1000.00000    90.00000    90.00000    90.00000  Step:          24  Bead:       0 positions{angstrom}  cell{angstrom}
       O -3.14131e+00  1.06898e+00  3.43147e-01
       H -3.93844e+00  4.66230e-01  3.43854e-01
       H -2.39092e+00  4.27361e-01  2.74832e-01
       H -3.19320e+00  2.20851e+00  6.20066e-01
4
# CELL(abcABC): 1000.00000  1000.00000  1000.00000    90.00000    90.00000    90.00000  Step:          25  Bead:       0 positions{angstrom}  cell{angstrom}
       O -3.14317e+00  1.06904e+00  3.42988e-01
       H -3.92444e+00  4.58456e-01  3.48392e-01
       H -2.37534e+00  4.35539e-01  2.75306e-01
       H -3.19327e+00  2.20717e+00  6.17580e-01
4
# CELL(abcABC): 1000.00000  1000.00000  1000.00000    90.00000    90.00000    90.00000  Step:          26  Bead:       0 positions{angstrom}  cell{angstrom}
       O -3.14501e+00  1.06894e+00  3.42934e-01
       H -3.90813e+00  4.52294e-01  3.51524e-01
       H -2.36208e+00  4.45867e-01  2.75240e-01
       H -3.19370e+00  2.20462e+00  6.15365e-01
4
# CELL(abcABC): 1000.00000  1000.00000  1000.00000    90.00000    90.00000    90.00000  Step:          27  Bead:       0 positions{angstrom}  cell{angstrom}
       O -3.14683e+00  1.06860e+00  3.43031e-01
       H -3.89072e+00  4.48687e-01  3.53294e-01
       H -2.35197e+00  4.58004e-01  2.74521e-01
       H -3.19238e+00  2.20141e+00  6.12787e-01
4
# CELL(abcABC): 1000.00000  1000.00000  1000.00000    90.00000    90.00000    90.00000  Step:          28  Bead:       0 positions{angstrom}  cell{angstrom}
       O -3.14837e+00  1.06811e+00  3.43183e-01
       H -3.87437e+00  4.44228e-01  3.54229e-01
       H -2.34468e+00  4.72922e-01  2.73743e-01
       H -3.19154e+00  2.19877e+00  6.10212e-01
4
# CELL(abcABC): 1000.00000  1000.00000  1000.00000    90.00000    90.00000    90.00000  Step:          29  Bead:       0 positions{angstrom}  cell{angstrom}
       O -3.14964e+00  1.06748e+00  3.43465e-01
       H -3.85848e+00  4.39846e-01  3.53070e-01
       H -2.34174e+00  4.90241e-01  2.72638e-01
       H -3.19015e+00  2.19583e+00  6.08004e-01
4
# CELL(abcABC): 1000.00000  1000.00000  1000.00000    90.00000    90.00000    90.00000  Step:          30  Bead:       0 positions{angstrom}  cell{angstrom}
       O -3.15058e+00  1.06673e+00  3.43822e-01
       H -3.84452e+00  4.35281e-01  3.52011e-01
       H -2.34199e+00  5.09497e-01  2.71581e-01
       H -3.18901e+00  2.19313e+00  6.04450e-01
4
# CELL(abcABC): 1000.00000  1000.00000  1000.00000    90.00000    90.00000    90.00000  Step:          31  Bead:       0 positions{angstrom}  cell{angstrom}
       O -3.15130e+00  1.06593e+00  3.44350e-01
       H -3.83226e+00  4.28849e-01  3.50514e-01
       H -2.34376e+00  5.31167e-01  2.69447e-01
       H -3.18806e+00  2.19059e+00  5.99702e-01
4
# CELL(abcABC): 1000.00000  1000.00000  1000.00000    90.00000    90.00000    90.00000  Step:          32  Bead:       0 positions{angstrom}  cell{angstrom}
       O -3.15168e+00  1.06538e+00  3.44812e-01
       H -3.82481e+00  4.17878e-01  3.49036e-01
       H -2.34593e+00  5.54527e-01  2.67978e-01
       H -3.18730e+00  2.18685e+00  5.95308e-01
4
# CELL(abcABC): 1000.00000  1000.00000  1000.00000    90.00000    90.00000    90.00000  Step:          33  Bead:       0 positions{angstrom}  cell{angstrom}
       O -3.15183e+00  1.06519e+00  3.45284e-01
       H -3.82160e+00  4.03616e-01  3.48211e-01
       H -2.34724e+00  5.76318e-01  2.66339e-01
       H -3.18680e+00  2.18237e+00  5.90276e-01
4
# CELL(abcABC): 1000.00000  1000.00000  1000.00000    90.00000    90.00000    90.00000  Step:          34  Bead:       0 positions{angstrom}  cell{angstrom}
       O -3.15177e+00  1.06528e+00  3.45981e-01
       H -3.82077e+00  3.87257e-01  3.46634e-01
       H -2.34844e+00  5.96089e-01  2.64256e-01
       H -3.18731e+00  2.17757e+00  5.82883e-01
4
# CELL(abcABC): 1000.00000  1000.00000  1000.00000    90.00000    90.00000    90.00000  Step:          35  Bead:       0 positions{angstrom}  cell{angstrom}
       O -3.15184e+00  1.06556e+00  3.46817e-01
       H -3.81985e+00  3.69964e-01  3.43689e-01
       H -2.34760e+00  6.14427e-01  2.61945e-01
       H -3.18809e+00  2.17203e+00  5.74864e-01
4
# CELL(abcABC): 1000.00000  1000.00000  1000.00000    90.00000    90.00000    90.00000  Step:          36  Bead:       0 positions{angstrom}  cell{angstrom}
       O -3.15215e+00  1.06595e+00  3.47818e-01
       H -3.81914e+00  3.52939e-01  3.39567e-01
       H -2.34227e+00  6.31113e-01  2.57789e-01
       H -3.18911e+00  2.16619e+00  5.67253e-01
4
# CELL(abcABC): 1000.00000  1000.00000  1000.00000    90.00000    90.00000    90.00000  Step:          37  Bead:       0 positions{angstrom}  cell{angstrom}
       O -3.15284e+00  1.06652e+00  3.48850e-01
       H -3.81718e+00  3.38035e-01  3.36550e-01
       H -2.33178e+00  6.44098e-01  2.52085e-01
       H -3.19071e+00  2.15905e+00  5.59587e-01
4
# CELL(abcABC): 1000.00000  1000.00000  1000.00000    90.00000    90.00000    90.00000  Step:          38  Bead:       0 positions{angstrom}  cell{angstrom}
       O -3.15367e+00  1.06713e+00  3.50173e-01
       H -3.81484e+00  3.25023e-01  3.31739e-01
       H -2.31722e+00  6.53241e-01  2.45102e-01
       H -3.19433e+00  2.15321e+00  5.50383e-01
4
# CELL(abcABC): 1000.00000  1000.00000  1000.00000    90.00000    90.00000    90.00000  Step:          39  Bead:       0 positions{angstrom}  cell{angstrom}
       O -3.15492e+00  1.06781e+00  3.51491e-01
       H -3.80980e+00  3.14165e-01  3.26905e-01
       H -2.29973e+00  6.59194e-01  2.38229e-01
       H -3.19703e+00  2.14728e+00  5.41172e-01
4
# CELL(abcABC): 1000.00000  1000.00000  1000.00000    90.00000    90.00000    90.00000  Step:          40  Bead:       0 positions{angstrom}  cell{angstrom}
       O -3.15635e+00  1.06831e+00  3.52685e-01
       H -3.80252e+00  3.06564e-01  3.22597e-01
       H -2.28143e+00  6.64183e-01  2.32530e-01
       H -3.19998e+00  2.14209e+00  5.32234e-01
4
# CELL(abcABC): 1000.00000  1000.00000  1000.00000    90.00000    90.00000    90.00000  Step:          41  Bead:       0 positions{angstrom}  cell{angstrom}
       O -3.15777e+00  1.06856e+00  3.53844e-01
       H -3.79336e+00  3.02866e-01  3.17523e-01
       H -2.26391e+00  6.69308e-01  2.27070e-01
       H -3.20403e+00  2.13670e+00  5.24362e-01
4
# CELL(abcABC): 1000.00000  1000.00000  1000.00000    90.00000    90.00000    90.00000  Step:          42  Bead:       0 positions{angstrom}  cell{angstrom}
       O -3.15918e+00  1.06869e+00  3.55040e-01
       H -3.78090e+00  3.00200e-01  3.11851e-01
       H -2.24924e+00  6.74930e-01  2.22249e-01
       H -3.20890e+00  2.13165e+00  5.15877e-01
4
# CELL(abcABC): 1000.00000  1000.00000  1000.00000    90.00000    90.00000    90.00000  Step:          43  Bead:       0 positions{angstrom}  cell{angstrom}
       O -3.16031e+00  1.06850e+00  3.56207e-01
       H -3.76735e+00  3.00714e-01  3.05607e-01
       H -2.23881e+00  6.82845e-01  2.18232e-01
       H -3.21485e+00  2.12613e+00  5.07604e-01
4
# CELL(abcABC): 1000.00000  1000.00000  1000.00000    90.00000    90.00000    90.00000  Step:          44  Bead:       0 positions{angstrom}  cell{angstrom}
       O -3.16107e+00  1.06814e+00  3.57317e-01
       H -3.75298e+00  3.02099e-01  2.98546e-01
       H -2.23343e+00  6.91564e-01  2.14521e-01
       H -3.22263e+00  2.12185e+00  5.00766e-01
4
# CELL(abcABC): 1000.00000  1000.00000  1000.00000    90.00000    90.00000    90.00000  Step:          45  Bead:       0 positions{angstrom}  cell{angstrom}
       O -3.16130e+00  1.06763e+00  3.58418e-01
       H -3.73936e+00  3.04208e-01  2.90625e-01
       H -2.23274e+00  7.00924e-01  2.10904e-01
       H -3.23330e+00  2.11839e+00  4.94817e-01
4
# CELL(abcABC): 1000.00000  1000.00000  1000.00000    90.00000    90.00000    90.00000  Step:          46  Bead:       0 positions{angstrom}  cell{angstrom}
       O -3.16109e+00  1.06706e+00  3.59483e-01
       H -3.72680e+00  3.06540e-01  2.82049e-01
       H -2.23734e+00  7.10593e-01  2.07751e-01
       H -3.24444e+00  2.11557e+00  4.89654e-01
4
# CELL(abcABC): 1000.00000  1000.00000  1000.00000    90.00000    90.00000    90.00000  Step:          47  Bead:       0 positions{angstrom}  cell{angstrom}
       O -3.16040e+00  1.06634e+00  3.60605e-01
       H -3.71592e+00  3.07264e-01  2.73457e-01
       H -2.24625e+00  7.21372e-01  2.04609e-01
       H -3.25750e+00  2.11537e+00  4.83570e-01
4
# CELL(abcABC): 1000.00000  1000.00000  1000.00000    90.00000    90.00000    90.00000  Step:          48  Bead:       0 positions{angstrom}  cell{angstrom}
       O -3.15925e+00  1.06577e+00  3.61660e-01
       H -3.70676e+00  3.04898e-01  2.64861e-01
       H -2.25838e+00  7.33201e-01  2.01447e-01
       H -3.27269e+00  2.11507e+00  4.78579e-01
4
# CELL(abcABC): 1000.00000  1000.00000  1000.00000    90.00000    90.00000    90.00000  Step:          49  Bead:       0 positions{angstrom}  cell{angstrom}
       O -3.15783e+00  1.06529e+00  3.62556e-01
       H -3.69992e+00  2.99727e-01  2.56550e-01
       H -2.27076e+00  7.44624e-01  1.98863e-01
       H -3.28980e+00  2.11637e+00  4.75260e-01
4
# CELL(abcABC): 1000.00000  1000.00000  1000.00000    90.00000    90.00000    90.00000  Step:          50  Bead:       0 positions{angstrom}  cell{angstrom}
       O -3.15605e+00  1.06502e+00  3.63516e-01
       H -3.69562e+00  2.92533e-01  2.47723e-01
       H -2.28428e+00  7.54560e-01  1.96494e-01
       H -3.30882e+00  2.11797e+00  4.71211e-01
4
# CELL(abcABC): 1000.00000  1000.00000  1000.00000    90.00000    90.00000    90.00000  Step:          51  Bead:       0 positions{angstrom}  cell{angstrom}
       O -3.15427e+00  1.06488e+00  3.64471e-01
       H -3.69347e+00  2.83423e-01  2.38366e-01
       H -2.29525e+00  7.63340e-01  1.93696e-01
       H -3.32816e+00  2.12049e+00  4.68218e-01
4
# CELL(abcABC): 1000.00000  1000.00000  1000.00000    90.00000    90.00000    90.00000  Step:          52  Bead:       0 positions{angstrom}  cell{angstrom}
       O -3.15266e+00  1.06497e+00  3.65528e-01
       H -3.69286e+00  2.73542e-01  2.29126e-01
       H -2.30150e+00  7.69477e-01  1.89062e-01
       H -3.34818e+00  2.12280e+00  4.65311e-01
4
# CELL(abcABC): 1000.00000  1000.00000  1000.00000    90.00000    90.00000    90.00000  Step:          53  Bead:       0 positions{angstrom}  cell{angstrom}
       O -3.15138e+00  1.06513e+00  3.66542e-01
       H -3.69208e+00  2.64704e-01  2.19336e-01
       H -2.30173e+00  7.74635e-01  1.84091e-01
       H -3.36902e+00  2.12395e+00  4.63963e-01
4
# CELL(abcABC): 1000.00000  1000.00000  1000.00000    90.00000    90.00000    90.00000  Step:          54  Bead:       0 positions{angstrom}  cell{angstrom}
       O -3.15046e+00  1.06543e+00  3.67265e-01
       H -3.69115e+00  2.56407e-01  2.11258e-01
       H -2.29576e+00  7.78132e-01  1.78891e-01
       H -3.39044e+00  2.12403e+00  4.65768e-01
4
# CELL(abcABC): 1000.00000  1000.00000  1000.00000    90.00000    90.00000    90.00000  Step:          55  Bead:       0 positions{angstrom}  cell{angstrom}
       O -3.14998e+00  1.06573e+00  3.67887e-01
       H -3.68999e+00  2.50444e-01  2.04844e-01
       H -2.28383e+00  7.79723e-01  1.73574e-01
       H -3.41123e+00  2.12356e+00  4.67637e-01
4
# CELL(abcABC): 1000.00000  1000.00000  1000.00000    90.00000    90.00000    90.00000  Step:          56  Bead:       0 positions{angstrom}  cell{angstrom}
       O -3.14987e+00  1.06593e+00  3.68395e-01
       H -3.68544e+00  2.47428e-01  2.00120e-01
       H -2.26802e+00  7.79661e-01  1.66804e-01
       H -3.43330e+00  2.12351e+00  4.71056e-01
4
# CELL(abcABC): 1000.00000  1000.00000  1000.00000    90.00000    90.00000    90.00000  Step:          57  Bead:       0 positions{angstrom}  cell{angstrom}
       O -3.14994e+00  1.06596e+00  3.68703e-01
       H -3.67791e+00  2.47731e-01  1.97109e-01
       H -2.25150e+00  7.78504e-01  1.61214e-01
       H -3.45625e+00  2.12381e+00  4.74772e-01
4
# CELL(abcABC): 1000.00000  1000.00000  1000.00000    90.00000    90.00000    90.00000  Step:          58  Bead:       0 positions{angstrom}  cell{angstrom}
       O -3.15013e+00  1.06591e+00  3.68833e-01
       H -3.66805e+00  2.49645e-01  1.95129e-01
       H -2.23492e+00  7.77386e-01  1.57010e-01
       H -3.47958e+00  2.12392e+00  4.78895e-01
4
# CELL(abcABC): 1000.00000  1000.00000  1000.00000    90.00000    90.00000    90.00000  Step:          59  Bead:       0 positions{angstrom}  cell{angstrom}
       O -3.15031e+00  1.06568e+00  3.68650e-01
       H -3.65634e+00  2.53376e-01  1.94353e-01
       H -2.22015e+00  7.77405e-01  1.55666e-01
       H -3.50321e+00  2.12382e+00  4.83923e-01
4
# CELL(abcABC): 1000.00000  1000.00000  1000.00000    90.00000    90.00000    90.00000  Step:          60  Bead:       0 positions{angstrom}  cell{angstrom}
       O -3.15035e+00  1.06541e+00  3.68313e-01
       H -3.64530e+00  2.57481e-01  1.94589e-01
       H -2.20802e+00  7.77875e-01  1.54396e-01
       H -3.52574e+00  2.12346e+00  4.90308e-01
4
# CELL(abcABC): 1000.00000  1000.00000  1000.00000    90.00000    90.00000    90.00000  Step:          61  Bead:       0 positions{angstrom}  cell{angstrom}
       O -3.15023e+00  1.06516e+00  3.67809e-01
       H -3.63361e+00  2.60775e-01  1.95284e-01
       H -2.19901e+00  7.79437e-01  1.53718e-01
       H -3.54846e+00  2.12259e+00  4.98284e-01
4
# CELL(abcABC): 1000.00000  1000.00000  1000.00000    90.00000    90.00000    90.00000  Step:          62  Bead:       0 positions{angstrom}  cell{angstrom}
       O -3.14970e+00  1.06503e+00  3.67256e-01
       H -3.62356e+00  2.61914e-01  1.96007e-01
       H -2.19616e+00  7.81969e-01  1.54522e-01
       H -3.56980e+00  2.12095e+00  5.05534e-01
4
# CELL(abcABC): 1000.00000  1000.00000  1000.00000    90.00000    90.00000    90.00000  Step:          63  Bead:       0 positions{angstrom}  cell{angstrom}
       O -3.14875e+00  1.06489e+00  3.66385e-01
       H -3.61450e+00  2.62011e-01  1.97505e-01
       H -2.19869e+00  7.85191e-01  1.57108e-01
       H -3.59135e+00  2.11994e+00  5.15282e-01
4
# CELL(abcABC): 1000.00000  1000.00000  1000.00000    90.00000    90.00000    90.00000  Step:          64  Bead:       0 positions{angstrom}  cell{angstrom}
       O -3.14749e+00  1.06487e+00  3.65329e-01
       H -3.60588e+00  2.59892e-01  2.00155e-01
       H -2.20547e+00  7.89492e-01  1.61523e-01
       H -3.61319e+00  2.11807e+00  5.24975e-01
4
# CELL(abcABC): 1000.00000  1000.00000  1000.00000    90.00000    90.00000    90.00000  Step:          65  Bead:       0 positions{angstrom}  cell{angstrom}
       O -3.14594e+00  1.06494e+00  3.64177e-01
       H -3.59993e+00  2.55700e-01  2.01794e-01
       H -2.21520e+00  7.96152e-01  1.67325e-01
       H -3.63399e+00  2.11435e+00  5.35825e-01
4
# CELL(abcABC): 1000.00000  1000.00000  1000.00000    90.00000    90.00000    90.00000  Step:          66  Bead:       0 positions{angstrom}  cell{angstrom}
       O -3.14422e+00  1.06509e+00  3.62839e-01
       H -3.59589e+00  2.51682e-01  2.04174e-01
       H -2.22692e+00  8.02161e-01  1.74641e-01
       H -3.65359e+00  2.11012e+00  5.47367e-01
4
# CELL(abcABC): 1000.00000  1000.00000  1000.00000    90.00000    90.00000    90.00000  Step:          67  Bead:       0 positions{angstrom}  cell{angstrom}
       O -3.14238e+00  1.06547e+00  3.61433e-01
       H -3.59329e+00  2.44843e-01  2.05790e-01
       H -2.23842e+00  8.08708e-01  1.83260e-01
       H -3.67398e+00  2.10436e+00  5.59440e-01
4
# CELL(abcABC): 1000.00000  1000.00000  1000.00000    90.00000    90.00000    90.00000  Step:          68  Bead:       0 positions{angstrom}  cell{angstrom}
       O -3.14066e+00  1.06595e+00  3.60140e-01
       H -3.59134e+00  2.36522e-01  2.07203e-01
       H -2.24778e+00  8.15366e-01  1.90622e-01
       H -3.69376e+00  2.09836e+00  5.71194e-01
4
# CELL(abcABC): 1000.00000  1000.00000  1000.00000    90.00000    90.00000    90.00000  Step:          69  Bead:       0 positions{angstrom}  cell{angstrom}
       O -3.13915e+00  1.06666e+00  3.58661e-01
       H -3.59050e+00  2.26281e-01  2.10409e-01
       H -2.25407e+00  8.21768e-01  1.98798e-01
       H -3.71237e+00  2.09084e+00  5.83290e-01
4
# CELL(abcABC): 1000.00000  1000.00000  1000.00000    90.00000    90.00000    90.00000  Step:          70  Bead:       0 positions{angstrom}  cell{angstrom}
       O -3.13820e+00  1.06732e+00  3.57202e-01
       H -3.58936e+00  2.17191e-01  2.12945e-01
       H -2.25478e+00  8.28296e-01  2.06259e-01
       H -3.72790e+00  2.08307e+00  5.96459e-01
4
# CELL(abcABC): 1000.00000  1000.00000  1000.00000    90.00000    90.00000    90.00000  Step:          71  Bead:       0 positions{angstrom}  cell{angstrom}
       O -3.13769e+00  1.06807e+00  3.55840e-01
       H -3.58845e+00  2.08305e-01  2.14383e-01
       H -2.24982e+00  8.33576e-01  2.12676e-01
       H -3.74175e+00  2.07475e+00  6.10217e-01
4
# CELL(abcABC): 1000.00000  1000.00000  1000.00000    90.00000    90.00000    90.00000  Step:          72  Bead:       0 positions{angstrom}  cell{angstrom}
       O -3.13775e+00  1.06868e+00  3.54460e-01
       H -3.58620e+00  2.01681e-01  2.16423e-01
       H -2.23887e+00  8.38431e-01  2.19258e-01
       H -3.75414e+00  2.06680e+00  6.23491e-01
4
# CELL(abcABC): 1000.00000  1000.00000  1000.00000    90.00000    90.00000    90.00000  Step:          73  Bead:       0 positions{angstrom}  cell{angstrom}
       O -3.13821e+00  1.06923e+00  3.53179e-01
       H -3.58276e+00  1.97269e-01  2.18612e-01
       H -2.22349e+00  8.43415e-01  2.25466e-01
       H -3.76555e+00  2.05746e+00  6.35443e-01
4
# CELL(abcABC): 1000.00000  1000.00000  1000.00000    90.00000    90.00000    90.00000  Step:          74  Bead:       0 positions{angstrom}  cell{angstrom}
       O -3.13905e+00  1.06959e+00  3.52079e-01
       H -3.57752e+00  1.95406e-01  2.19739e-01
       H -2.20566e+00  8.48629e-01  2.30343e-01
       H -3.77530e+00  2.04838e+00  6.46892e-01
4
# CELL(abcABC): 1000.00000  1000.00000  1000.00000    90.00000    90.00000    90.00000  Step:          75  Bead:       0 positions{angstrom}  cell{angstrom}
       O -3.13993e+00  1.06984e+00  3.51002e-01
       H -3.57129e+00  1.94829e-01  2.20464e-01
       H -2.18821e+00  8.53884e-01  2.36041e-01
       H -3.78504e+00  2.03981e+00  6.57557e-01
4
# CELL(abcABC): 1000.00000  1000.00000  1000.00000    90.00000    90.00000    90.00000  Step:          76  Bead:       0 positions{angstrom}  cell{angstrom}
       O -3.14095e+00  1.06980e+00  3.49824e-01
       H -3.56285e+00  1.96429e-01  2.22333e-01
       H -2.17267e+00  8.60162e-01  2.42066e-01
       H -3.79284e+00  2.03253e+00  6.68368e-01
4
# CELL(abcABC): 1000.00000  1000.00000  1000.00000    90.00000    90.00000    90.00000  Step:          77  Bead:       0 positions{angstrom}  cell{angstrom}
       O -3.14182e+00  1.06960e+00  3.48636e-01
       H -3.55341e+00  2.00202e-01  2.24148e-01
       H -2.16094e+00  8.67922e-01  2.49033e-01
       H -3.80018e+00  2.02416e+00  6.78443e-01
4
# CELL(abcABC): 1000.00000  1000.00000  1000.00000    90.00000    90.00000    90.00000  Step:          78  Bead:       0 positions{angstrom}  cell{angstrom}
       O -3.14247e+00  1.06934e+00  3.47653e-01
       H -3.54452e+00  2.03636e-01  2.24792e-01
       H -2.15277e+00  8.77576e-01  2.56093e-01
       H -3.80695e+00  2.01527e+00  6.86338e-01
4
# CELL(abcABC): 1000.00000  1000.00000  1000.00000    90.00000    90.00000    90.00000  Step:          79  Bead:       0 positions{angstrom}  cell{angstrom}
       O -3.14295e+00  1.06916e+00  3.46698e-01
       H -3.53607e+00  2.07047e-01  2.26304e-01
       H -2.14823e+00  8.87591e-01  2.63247e-01
       H -3.81237e+00  2.00469e+00  6.92831e-01
4
# CELL(abcABC): 1000.00000  1000.00000  1000.00000    90.00000    90.00000    90.00000  Step:          80  Bead:       0 positions{angstrom}  cell{angstrom}
       O -3.14324e+00  1.06905e+00  3.45714e-01
       H -3.52743e+00  2.09337e-01  2.27271e-01
       H -2.14832e+00  8.98455e-01  2.71669e-01
       H -3.81618e+00  1.99327e+00  6.99064e-01
4
# CELL(abcABC): 1000.00000  1000.00000  1000.00000    90.00000    90.00000    90.00000  Step:          81  Bead:       0 positions{angstrom}  cell{angstrom}
       O -3.14333e+00  1.06891e+00  3.44889e-01
       H -3.51723e+00  2.10382e-01  2.26928e-01
       H -2.15379e+00  9.12178e-01  2.80393e-01
       H -3.81961e+00  1.98071e+00  7.03781e-01
4
# CELL(abcABC): 1000.00000  1000.00000  1000.00000    90.00000    90.00000    90.00000  Step:          82  Bead:       0 positions{angstrom}  cell{angstrom}
       O -3.14316e+00  1.06906e+00  3.44083e-01
       H -3.50715e+00  2.08115e-01  2.26533e-01
       H -2.16289e+00  9.25537e-01  2.89032e-01
       H -3.82330e+00  1.96721e+00  7.08329e-01
4
# CELL(abcABC): 1000.00000  1000.00000  1000.00000    90.00000    90.00000    90.00000  Step:          83  Bead:       0 positions{angstrom}  cell{angstrom}
       O -3.14283e+00  1.06932e+00  3.43407e-01
       H -3.49793e+00  2.03390e-01  2.25698e-01
       H -2.17481e+00  9.39953e-01  2.97504e-01
       H -3.82570e+00  1.95344e+00  7.11428e-01
4
# CELL(abcABC): 1000.00000  1000.00000  1000.00000    90.00000    90.00000    90.00000  Step:          84  Bead:       0 positions{angstrom}  cell{angstrom}
       O -3.14241e+00  1.06974e+00  3.42902e-01
       H -3.48843e+00  1.95297e-01  2.22971e-01
       H -2.18895e+00  9.55040e-01  3.05530e-01
       H -3.82779e+00  1.93976e+00  7.14150e-01
4
# CELL(abcABC): 1000.00000  1000.00000  1000.00000    90.00000    90.00000    90.00000  Step:          85  Bead:       0 positions{angstrom}  cell{angstrom}