11135
# CELL(abcABC):   47.46614    47.46614    47.46614    90.00000    90.00000    90.00000  Step:       10000  Bead:       0 positions{angstrom}  cell{angstrom}
       C -6.34580e+00 -3.68885e+00  5.46675e+00
       H -6.70884e+00 -4.67324e+00  4.98728e+00
       H -7.32831e+00 -3.31967e+00  5.77292e+00
       H -5.67490e+00 -3.84705e+00  6.32631e+00
       C -5.64828e+00 -2.81380e+00  4.41836e+00
       O -4.71097e+00 -3.24131e+00  3.80772e+00
       N -6.11013e+00 -1.59287e+00  4.19939e+00
       H -6.92612e+00 -1.30828e+00  4.65531e+00
       C -5.26282e+00 -6.20524e-01  3.42696e+00
       H -4.79126e+00 -1.18667e+00  2.70470e+00
       C -6.17388e+00  3.42482e-01  2.75746e+00
       H -5.56453e+00  9.67858e-01  2.12986e+00
       H -6.74137e+00  1.07420e+00  3.40824e+00
       C -7.17118e+00 -3.27770e-01  1.82164e+00
       H -8.10912e+00 -3.67449e-01  2.29559e+00
       H -6.75275e+00 -1.34304e+00  1.62221e+00
       C -7.33631e+00  4.61987e-01  5.25051e-01
       H -6.35685e+00  4.97623e-01  1.05667e-02
       H -7.55355e+00  1.50460e+00  7.19820e-01
       C -8.20854e+00 -1.04973e-02 -6.25807e-01
       H -8.39522e+00  8.53857e-01 -1.26720e+00
       H -9.16112e+00 -3.36506e-01 -2.80105e-01
       N -7.62571e+00 -1.10249e+00 -1.45943e+00
       H -6.87498e+00 -8.13659e-01 -1.99425e+00
       H -8.41241e+00 -1.38506e+00 -2.11441e+00
       H -7.29982e+00 -1.91467e+00 -8.79471e-01
       C -4.16236e+00  3.08493e-02  4.34790e+00
       O -4.44651e+00  8.75384e-01  5.21514e+00
       N -2.90528e+00 -3.53679e-01  4.14760e+00
       H -2.61227e+00 -1.17848e+00  3.70191e+00
       H -2.24462e+00  2.00237e-02  4.65855e+00
       O -1.32584e+01 -5.80083e+00 -2.51142e+01
       H -1.34687e+01 -5.71629e+00 -2.60463e+01
       H -1.39593e+01 -5.25027e+00 -2.47879e+01
       O -1.77693e+01 -6.76413e+00 -9.91512e+00
       H -1.76080e+01 -5.98406e+00 -9.34264e+00
       H -1.70575e+01 -6.49400e+00 -1.05782e+01
       O  1.79259e+01 -1.35717e+01 -6.88688e+00
       H  1.69811e+01 -1.36780e+01 -7.13399e+00
       H  1.78923e+01 -1.34336e+01 -5.95214e+00
       O -1.47926e+01 -1.34612e+01 -2.44617e+01
       H -1.52909e+01 -1.27002e+01 -2.40025e+01
       H -1.53418e+01 -1.34122e+01 -2.53286e+01
       O -1.01792e+01 -4.62363e+00 -1.77503e+01
       H -1.04759e+01 -5.58028e+00 -1.78937e+01
       H -9.22995e+00 -4.82140e+00 -1.75918e+01
       O  2.38917e+01 -1.76737e+01  2.30263e+01
       H  2.45540e+01 -1.82486e+01  2.25355e+01
       H  2.34188e+01 -1.83788e+01  2.35065e+01
       O -1.68410e+01 -7.27307e+00 -7.09133e+00
       H -1.72734e+01 -6.42656e+00 -7.31060e+00
       H -1.60749e+01 -6.90896e+00 -6.62926e+00
       O  2.07322e+01 -2.13457e+01 -1.21634e+01
       H  2.13559e+01 -2.16812e+01 -1.15773e+01
       H  2.09776e+01 -2.03794e+01 -1.21464e+01
       O -1.45698e+01 -1.90417e+01 -3.88813e+00
       H -1.54113e+01 -1.88534e+01 -3.39134e+00
       H -1.49754e+01 -1.95568e+01 -4.64855e+00
       O  1.37184e+01 -2.03494e+01 -1.27526e+01
       H  1.35163e+01 -1.99895e+01 -1.36428e+01
       H  1.36246e+01 -1.94607e+01 -1.23310e+01
       O -2.45130e+01 -9.74520e+00  6.11939e-01
       H -2.37671e+01 -9.14680e+00  3.55463e-01
       H -2.51223e+01 -9.10056e+00  9.91742e-01
       O  7.27683e+00 -2.59626e+01 -5.17067e+00
       H  6.37564e+00 -2.55927e+01 -5.05714e+00
       H  7.40019e+00 -2.57584e+01 -6.17335e+00
       O  5.31085e+00  1.35388e+01 -8.59949e+00
       H  5.60930e+00  1.31087e+01 -9.39066e+00
       H  5.01177e+00  1.43767e+01 -9.06867e+00
       O -2.62252e+01 -9.30552e+00 -1.16174e+01
       H -2.62765e+01 -9.56491e+00 -1.07001e+01
       H -2.63144e+01 -8.33234e+00 -1.16947e+01
       O -8.81590e+00 -1.48461e+01 -2.25901e+01
       H -8.81804e+00 -1.53554e+01 -2.17438e+01
       H -8.02362e+00 -1.42385e+01 -2.23725e+01
       O -4.42173e+00 -9.36905e+00 -1.17187e+01
       H -5.10062e+00 -1.00063e+01 -1.20914e+01
       H -4.68197e+00 -8.53782e+00 -1.21111e+01
       O -1.15026e+01 -2.21265e+01 -6.25240e+00
       H -1.16876e+01 -2.11619e+01 -6.53695e+00
       H -1.23188e+01 -2.25031e+01 -5.98062e+00
       O  3.17425e+00 -1.87415e+01 -1.79287e+01
       H  2.68325e+00 -1.88609e+01 -1.87957e+01
       H  3.88736e+00 -1.81101e+01 -1.81595e+01
       O -9.87521e+00 -1.83347e+01 -9.91586e+00
       H -9.21573e+00 -1.82026e+01 -1.06497e+01
       H -9.53668e+00 -1.76069e+01 -9.39365e+00
       O -4.13685e+00  1.71842e+01 -3.03009e+00
       H -4.73111e+00  1.78698e+01 -3.49034e+00
       H -4.75189e+00  1.64557e+01 -2.99320e+00
       O -2.55083e+01 -6.39697e+00 -6.61749e+00
       H -2.51802e+01 -5.73862e+00 -5.94270e+00
       H -2.58805e+01 -7.09374e+00 -6.06454e+00
       O -2.52419e+01 -6.74304e+00 -1.43414e+01
       H -2.48807e+01 -6.73510e+00 -1.34470e+01
       H -2.61698e+01 -6.95027e+00 -1.41702e+01
       O  2.20106e+01 -1.77050e+01 -1.87248e+01
       H  2.24108e+01 -1.76634e+01 -1.78070e+01
       H  2.28850e+01 -1.76822e+01 -1.92201e+01
       O -1.91222e+01 -1.71860e+01 -1.45983e+01
       H -1.87773e+01 -1.78036e+01 -1.38894e+01
       H -1.88358e+01 -1.63398e+01 -1.41393e+01
       O -6.19050e+00 -2.24648e+01 -1.04153e+01
       H -6.81052e+00 -2.20615e+01 -1.10825e+01
       H -5.33642e+00 -2.24400e+01 -1.08911e+01
       O -1.66432e+01 -7.47155e+00  2.17307e+01
       H -1.74352e+01 -7.74562e+00  2.13089e+01
       H -1.61135e+01 -7.88643e+00  2.10950e+01
       O -4.63615e+00 -3.05827e+01 -2.10901e+01
       H -3.98582e+00 -3.10230e+01 -2.16405e+01
       H -4.39214e+00 -3.09665e+01 -2.02394e+01
       O -6.66383e+00 -5.08870e+00  1.60675e+01
       H -6.82552e+00 -5.05040e+00  1.51615e+01
       H -7.52040e+00 -5.59408e+00  1.64301e+01
       O -1.31553e+01 -1.39086e+00  1.18741e+00
       H -1.34632e+01 -2.15180e+00  1.67827e+00
       H -1.34076e+01 -6.49411e-01  1.78842e+00
       O -2.52249e+01 -8.94629e+00  2.57948e+01
       H -2.56728e+01 -9.74913e+00  2.56079e+01
       H -2.44078e+01 -9.26590e+00  2.62394e+01
       O -2.30619e+01 -1.51817e+01 -1.63352e+01
       H -2.27330e+01 -1.60799e+01 -1.60094e+01
       H -2.21446e+01 -1.48702e+01 -1.64277e+01
       O  3.80533e+00 -1.29507e+01 -2.07305e+01
       H  3.21692e+00 -1.22955e+01 -2.12498e+01
       H  3.12585e+00 -1.33075e+01 -2.01156e+01
       O  2.85413e-01 -8.34481e+00 -3.20381e+01
       H  1.02717e+00 -8.89007e+00 -3.22083e+01
       H  5.30154e-01 -8.09859e+00 -3.11116e+01
       O -8.88704e+00 -2.46715e+01  4.02616e+00
       H -8.33437e+00 -2.45129e+01  3.21017e+00
       H -9.61855e+00 -2.40831e+01  3.83793e+00
       O -1.16642e+01 -1.62142e+01 -1.58709e+01
       H -1.23561e+01 -1.55158e+01 -1.58539e+01
       H -1.21972e+01 -1.69989e+01 -1.57651e+01
       O -2.21329e+01 -1.94603e+01  2.16237e+01
       H -2.16308e+01 -1.93110e+01  2.08383e+01
       H -2.21619e+01 -2.04438e+01  2.16167e+01
       O -1.29370e+01 -2.64139e+01 -1.05432e+00
       H -1.21155e+01 -2.58829e+01 -8.79942e-01
       H -1.29045e+01 -2.66985e+01 -1.98010e+00
       O -3.59020e+00 -3.80847e+00 -2.56812e+01
       H -3.83883e+00 -3.47799e+00 -2.65267e+01
       H -2.64391e+00 -3.69583e+00 -2.56861e+01
       O -1.11019e+01  1.25229e+00 -1.24374e+01
       H -1.19295e+01  1.37780e+00 -1.28729e+01
       H -1.07020e+01  7.62101e-01 -1.31991e+01
       O  1.66074e+00 -2.23311e+01 -1.56777e+01
       H  9.27796e-01 -2.19136e+01 -1.61358e+01
       H  2.04814e+00 -2.16126e+01 -1.51534e+01
       O  1.73968e+01 -1.94373e+01 -8.71480e+00
       H  1.70295e+01 -1.99445e+01 -9.43593e+00
       H  1.67019e+01 -1.87639e+01 -8.48145e+00
       O -1.42375e+01 -1.80945e+00 -3.20773e+01
       H -1.46700e+01 -1.82921e+00  1.62635e+01
       H -1.33462e+01 -1.56928e+00 -3.18716e+01
       O  1.60204e+01 -2.06180e+01 -1.11545e+01
       H  1.51387e+01 -2.03125e+01 -1.16137e+01
       H  1.65588e+01 -2.09286e+01 -1.18670e+01
       O -1.67741e+01 -8.94682e+00 -2.11214e+01
       H -1.74000e+01 -9.11315e+00 -2.18664e+01
       H -1.59862e+01 -9.01003e+00 -2.16150e+01
       O -2.49976e+01 -1.92096e+01 -1.15733e+01
       H -2.42628e+01 -1.90351e+01 -1.08544e+01
       H -2.53363e+01 -1.83536e+01 -1.15789e+01
       O -4.87418e+00 -1.32062e+01  1.27784e+01
       H -4.16178e+00 -1.35513e+01  1.21865e+01
       H -4.85939e+00 -1.38472e+01  1.35531e+01
       O -1.58959e+01 -2.15078e+01  3.73249e-01
       H -1.57312e+01 -2.24116e+01  1.10760e-01
       H -1.49889e+01 -2.11174e+01  2.58799e-01
       O  1.37399e+01 -6.86566e+00 -1.01069e+01
       H  1.45151e+01 -7.03865e+00 -1.05700e+01
       H  1.37633e+01 -5.93105e+00 -1.04299e+01
       O  8.37972e+00 -9.27699e+00 -1.22389e+01
       H  9.30265e+00 -9.04616e+00 -1.22710e+01
       H  8.09258e+00 -8.50559e+00 -1.27230e+01
       O -2.31080e+01 -2.67183e+00 -1.41688e+01
       H -2.40338e+01 -2.61525e+00 -1.37780e+01
       H -2.32683e+01 -3.47722e+00 -1.47098e+01
       O -1.16145e+01 -5.25141e+00 -3.02186e+01
       H -1.20417e+01 -5.48357e+00 -2.93903e+01
       H -1.18613e+01 -5.95398e+00 -3.08691e+01
       O -1.03222e+01 -1.18106e+01 -1.52619e+01
       H -1.05225e+01 -1.17089e+01 -1.62456e+01
       H -1.11851e+01 -1.16741e+01 -1.47698e+01
       O -1.00863e+01 -5.18266e+00 -2.42694e+01
       H -9.47373e+00 -4.36669e+00 -2.43301e+01
       H -1.03676e+01 -5.23870e+00 -2.33231e+01
       O -1.18139e+01 -2.30087e+00 -1.02864e+01
       H -1.23020e+01 -3.10974e+00 -1.00380e+01
       H -1.17787e+01 -2.46900e+00 -1.12382e+01
       O  5.60678e+00 -6.64146e+00 -1.17018e+01
       H  5.53914e+00 -5.70417e+00 -1.17769e+01
       H  6.14316e+00 -6.77019e+00 -1.25188e+01
       O -1.86330e+01 -1.62580e+01  2.38322e+00
       H -1.78683e+01 -1.57512e+01  2.29917e+00
       H -1.92216e+01 -1.56521e+01  1.88126e+00
       O -1.41650e+01 -9.36295e+00 -1.38147e+00
       H -1.33963e+01 -8.89706e+00 -1.77808e+00
       H -1.38674e+01 -1.02873e+01 -1.10578e+00
       O -8.44167e+00 -1.63188e+01 -2.02768e+01
       H -8.70474e+00 -1.65895e+01 -1.93403e+01
       H -7.50819e+00 -1.65235e+01 -2.01928e+01
       O -7.25568e+00 -1.92775e+01 -1.31510e+01
       H -7.07572e+00 -1.86444e+01 -1.24229e+01
       H -6.42785e+00 -1.96558e+01 -1.33390e+01
       O -3.86300e+00  2.23782e+01  5.93457e+00
       H -3.05730e+00  2.20708e+01  5.46224e+00
       H -4.18994e+00  2.31216e+01  5.36169e+00
       O -7.17058e+00 -3.77551e+00 -2.27625e+01
       H -7.60259e+00 -3.54317e+00 -2.36372e+01
       H -6.54352e+00 -4.45219e+00 -2.31381e+01
       O -7.35253e+00  2.68463e+01  3.66390e+00
       H -6.87849e+00  2.76300e+01  3.67289e+00
       H -7.58646e+00  2.68607e+01  2.72090e+00
       O -1.21345e+01 -1.78155e+01 -1.31027e+01
       H -1.13606e+01 -1.82332e+01 -1.36611e+01
       H -1.16663e+01 -1.71084e+01 -1.25799e+01
       O  3.41526e+00 -1.53185e+01 -2.64789e+00
       H  3.52146e+00 -1.55559e+01 -3.64387e+00
       H  3.15867e+00 -1.44329e+01 -2.79470e+00
       O -6.90427e+00 -1.38678e+01  5.54104e+00
       H -7.76901e+00 -1.42165e+01  5.37295e+00
       H -7.05342e+00 -1.35710e+01  6.43296e+00
       O -1.45731e+01 -3.40524e+00  2.30595e+01
       H -1.51171e+01 -2.87824e+00  2.36925e+01
       H -1.40231e+01 -2.77285e+00  2.26246e+01
       O -1.89524e+01 -1.15727e+01 -1.16677e+01
       H -1.90880e+01 -1.11987e+01 -1.07478e+01
       H -1.98181e+01 -1.18988e+01 -1.19432e+01
       O -2.11977e+00 -1.60499e+01 -6.83839e+00
       H -2.16436e+00 -1.65601e+01 -5.99695e+00
       H -1.23046e+00 -1.57571e+01 -6.92514e+00
       O -1.29419e+01 -2.19044e+01 -8.95285e+00
       H -1.20718e+01 -2.21917e+01 -9.02043e+00
       H -1.34736e+01 -2.26806e+01 -9.26519e+00
       O -2.68869e+01 -2.19973e+01  2.39468e+01
       H -2.73039e+01 -2.22266e+01  2.30780e+01
       H -2.74747e+01 -2.12723e+01  2.41622e+01
       O  2.25257e+01  2.21194e+01  2.38784e+01
       H  2.29953e+01  2.24871e+01  2.31028e+01
       H  2.23471e+01  2.29187e+01  2.43538e+01
       O -5.96407e+00 -1.70211e+01 -7.26942e+00
       H -5.65345e+00 -1.79342e+01 -7.03545e+00
       H -5.23522e+00 -1.67840e+01 -7.82065e+00
       O -1.26200e+01 -1.07155e+01 -1.39225e+01
       H -1.31539e+01 -1.01847e+01 -1.45289e+01
       H -1.22589e+01 -1.01011e+01 -1.32929e+01
       O -1.67245e+01 -8.69825e+00  6.78124e+00
       H -1.64534e+01 -9.49866e+00  6.31634e+00
       H -1.68491e+01 -8.10898e+00  6.03773e+00
       O -1.70123e+01 -2.12800e+01 -2.40436e+01
       H -1.73602e+01 -2.21974e+01 -2.42812e+01
       H -1.77095e+01 -2.05562e+01 -2.40853e+01
       O -2.04324e+01 -1.12628e+01 -2.76849e+01
       H -2.13547e+01 -1.11106e+01 -2.72626e+01
       H -2.06836e+01 -1.11945e+01 -2.86172e+01
       O -2.79788e+00 -1.44257e+01 -1.40664e+01
       H -2.45255e+00 -1.52363e+01 -1.35519e+01
       H -3.32034e+00 -1.49470e+01 -1.47197e+01
       O -2.04090e+01 -1.67158e+01 -9.97756e+00
       H -2.04095e+01 -1.59175e+01 -9.48612e+00
       H -2.10336e+01 -1.65342e+01 -1.07941e+01
       O -1.79136e+01 -1.50945e+01 -1.32149e+01
       H -1.74549e+01 -1.48538e+01 -1.24307e+01
       H -1.76500e+01 -1.42604e+01 -1.36583e+01
       O -1.56381e+01 -1.26426e+01 -6.31416e+00
       H -1.60663e+01 -1.35195e+01 -6.00676e+00
       H -1.46355e+01 -1.28070e+01 -6.25138e+00
       O -1.49050e+01 -1.39809e+01 -9.21334e+00
       H -1.47968e+01 -1.34799e+01 -8.40885e+00
       H -1.56210e+01 -1.34417e+01 -9.58318e+00
       O  1.98191e+01 -1.01465e+01 -1.55826e+01
       H  1.90423e+01 -9.53652e+00 -1.55315e+01
       H  1.95151e+01 -1.07896e+01 -1.48390e+01
       O -4.11216e+00 -2.48843e+01 -5.13407e+00
       H -4.31312e+00 -2.39936e+01 -5.52312e+00
       H -4.92388e+00 -2.50727e+01 -4.67209e+00
       O -1.95214e+01 -2.13098e+01  1.54242e+01
       H -2.01336e+01 -2.17781e+01  1.48623e+01
       H -2.00427e+01 -2.05127e+01  1.56822e+01
       O -1.02853e+01 -8.00088e+00 -5.55696e+00
       H -1.06241e+01 -8.82740e+00 -5.29412e+00
       H -9.94630e+00 -8.25677e+00 -6.47544e+00
       O -1.59463e+01 -2.02871e+00 -1.93475e+01
       H -1.54453e+01 -1.80495e+00 -1.85502e+01
       H -1.67505e+01 -2.39987e+00 -1.89284e+01
       O  2.64788e+01 -1.93526e+01 -3.17329e+00
       H  2.70509e+01 -1.86020e+01 -3.00294e+00
       H  2.57255e+01 -1.89347e+01 -3.57233e+00
       O  1.37310e+01 -1.25732e+01 -2.47914e+01
       H  1.28412e+01 -1.29576e+01 -2.49932e+01
       H  1.36382e+01 -1.27443e+01 -2.38214e+01
       O  6.42160e+00 -2.01568e+01 -1.31603e+00
       H  5.91126e+00 -1.93557e+01 -1.17589e+00
       H  7.23405e+00 -1.98191e+01 -9.52603e-01
       O -2.07762e+01 -1.50446e+01 -2.43012e+01
       H -2.05808e+01 -1.59862e+01 -2.41597e+01
       H -1.98450e+01 -1.46567e+01 -2.45617e+01
       O -8.70380e-01 -1.14451e+01 -1.21699e+01
       H -6.47934e-01 -1.06948e+01 -1.16153e+01
       H -1.32024e+00 -1.21059e+01 -1.16189e+01
       O  6.63201e+00 -8.24868e+00 -7.54447e+00
       H  6.92129e+00 -8.98409e+00 -8.15409e+00
       H  7.41129e+00 -7.74247e+00 -7.42107e+00
       O -8.18078e+00 -4.75353e+00  2.16169e+00
       H -8.48600e+00 -5.32629e+00  2.93977e+00
       H -7.89661e+00 -5.45614e+00  1.51535e+00
       O -1.53872e+01  1.59904e+01 -1.30304e+01
       H -1.56539e+01  1.63925e+01 -1.21686e+01
       H -1.62266e+01  1.56254e+01 -1.33839e+01
       O -1.77799e+00 -1.29082e+01 -2.04707e+01
       H -2.34653e+00 -1.29556e+01 -2.12426e+01
       H -1.15645e+00 -1.36183e+01 -2.06289e+01
       O -1.82451e+01 -1.04114e+01  2.10411e+01
       H -1.89829e+01 -1.08738e+01  2.06567e+01
       H -1.86536e+01 -9.54748e+00  2.09744e+01
       O  2.03987e+01 -1.48255e+01  3.24291e+01
       H  2.07740e+01 -1.57425e+01  3.25943e+01
       H  2.12275e+01 -1.43292e+01  3.24548e+01
       O -1.07306e+01 -1.17973e+01 -1.79205e+01
       H -1.01548e+01 -1.22046e+01 -1.85751e+01
       H -1.12863e+01 -1.13190e+01 -1.85727e+01
       O -1.79020e+01 -1.17381e+01 -2.19313e+01
       H -1.88644e+01 -1.17628e+01 -2.21687e+01
       H -1.78964e+01 -1.13439e+01 -2.10427e+01
       O -2.09824e+01 -9.58492e+00  2.38540e+01
       H -2.08929e+01 -9.36732e+00  2.47628e+01
       H -2.18119e+01 -1.01223e+01  2.37405e+01
       O -1.23282e+01 -1.20487e+01 -2.38617e+01
       H -1.32010e+01 -1.24294e+01 -2.40187e+01
       H -1.17380e+01 -1.28270e+01 -2.39916e+01
       O -1.04968e+01 -1.37928e+01 -2.44953e+01
       H -1.05792e+01 -1.46664e+01 -2.49482e+01
       H -9.90164e+00 -1.40787e+01 -2.36981e+01
       O -7.22621e+00  1.62283e+01 -1.47161e+01
       H -7.28415e+00  1.64720e+01 -1.56650e+01
       H -6.69939e+00  1.54023e+01 -1.47446e+01
       O -1.44888e+01 -9.18510e-01 -1.03133e+01
       H -1.37887e+01 -1.54868e+00 -1.05041e+01
       H -1.52968e+01 -1.46372e+00 -1.04627e+01
       O -7.72460e+00 -1.47569e+01  1.45744e-01
       H -7.98311e+00 -1.38709e+01  4.43309e-01
       H -7.08912e+00 -1.45573e+01 -4.92944e-01
       O -2.38845e+00 -1.70793e+01 -2.26787e+01
       H -2.47751e+00 -1.70766e+01 -2.17411e+01
       H -3.27108e+00 -1.67724e+01 -2.28422e+01
       O  1.28837e+01 -4.88810e-01 -1.11404e+01
       H  1.27910e+01  4.59578e-01 -1.10662e+01
       H  1.31574e+01 -5.00987e-01 -1.20995e+01
       O -1.76813e+01 -2.16289e+00  2.32530e+01
       H -1.68477e+01 -2.24172e+00  2.37856e+01
       H -1.78040e+01 -3.08826e+00  2.31749e+01
       O  2.21615e+01 -1.78851e+01  1.70979e+01
       H  2.14778e+01 -1.83658e+01  1.76581e+01
       H  2.16746e+01 -1.70388e+01  1.69352e+01
       O -2.23005e+01 -8.16241e+00  1.82797e+01
       H -2.27573e+01 -7.39438e+00  1.87562e+01
       H -2.20528e+01 -8.79353e+00  1.89567e+01
       O -2.01524e+01  2.28784e+01 -9.09363e+00
       H -1.94259e+01  2.32002e+01 -8.51203e+00
       H -2.06141e+01  2.37590e+01 -9.35268e+00
       O -1.07026e+01 -1.15854e+01  1.71881e+01
       H -1.04299e+01 -1.06783e+01  1.68830e+01
       H -9.89068e+00 -1.18232e+01  1.77013e+01
       O  1.95658e+01 -1.66634e+01  1.09299e+01
       H  1.99266e+01 -1.58032e+01  1.06427e+01
       H  1.90703e+01 -1.64999e+01  1.17856e+01
       O  1.34018e+01 -2.25282e+01 -1.60561e+01
       H  1.41053e+01 -2.27789e+01 -1.66822e+01
       H  1.39077e+01 -2.19394e+01 -1.53381e+01
       O -9.74146e+00 -1.61545e+01 -4.27124e+00
       H -1.03663e+01 -1.66287e+01 -4.87101e+00
       H -8.93391e+00 -1.66910e+01 -4.51125e+00
       O  5.17364e+00 -1.64810e+01 -4.60287e+00
       H  5.28482e+00 -1.59831e+01 -5.42379e+00
       H  4.90941e+00 -1.74082e+01 -4.79448e+00
       O -1.15292e+01  1.97890e+01 -2.66736e+01
       H -1.15878e+01  1.91823e+01  2.15809e+01
       H -1.05237e+01  1.98735e+01  2.09093e+01
       O  1.19622e+01 -1.23785e+01  1.94560e+01
       H  1.26801e+01 -1.17120e+01 -2.79138e+01
       H  1.23785e+01 -1.31736e+01 -2.77038e+01
       O -3.29852e-01  1.40284e+01  2.00558e+00
       H -6.70111e-01  1.33561e+01  2.66202e+00
       H -1.33599e-01  1.47648e+01  2.58451e+00
       O -1.12125e+01  2.57733e+01  1.96283e+01
       H -1.13739e+01  2.55172e+01  2.05710e+01
       H -1.04802e+01  2.63295e+01  1.97992e+01
       O  2.61115e+01 -6.30588e+00  3.08582e+01
       H  2.61941e+01 -6.80460e+00  3.00037e+01
       H  2.52354e+01 -6.53070e+00  3.11630e+01
       O  1.67398e+01 -1.28556e+01 -1.62876e+01
       H  1.69576e+01 -1.26639e+01 -1.71784e+01
       H  1.63961e+01 -1.20001e+01 -1.60658e+01
       O  4.56381e-01 -9.60467e+00 -1.91568e+01
       H  5.94195e-01 -8.60732e+00 -1.92668e+01
       H  1.33653e+00 -9.99797e+00 -1.92957e+01
       O -1.32962e+01 -1.97844e+01 -7.37575e+00
       H -1.32187e+01  2.68687e+01 -7.94637e+00
       H -1.29744e+01 -1.90369e+01 -7.99821e+00
       O  2.68206e+01 -4.80593e+00  2.19082e+01
       H  2.64052e+01 -5.62044e+00  2.18022e+01
       H  2.69757e+01 -4.87122e+00  2.28064e+01
       O -2.29682e+01  7.72296e+00 -1.53051e+00
       H -2.21633e+01  7.90932e+00 -2.03725e+00
       H -2.24567e+01  7.38350e+00 -8.54117e-01
       O  1.58239e+01 -5.56398e+00 -1.61732e+01
       H  1.54347e+01 -5.61775e+00 -1.53565e+01
       H  1.63327e+01 -4.72813e+00 -1.61199e+01
       O -1.40217e+01 -1.63673e+01  2.37944e+01
       H -1.46459e+01 -1.56554e+01  2.35420e+01
       H -1.46658e+01 -1.70703e+01  2.39849e+01
       O -6.25314e+00 -8.71959e+00  1.64372e+00
       H -6.80797e+00 -9.50036e+00  1.52283e+00
       H -5.67598e+00 -8.93457e+00  9.01726e-01
       O -2.07590e+00 -1.91437e+01 -1.66196e+01
       H -2.11486e+00 -2.01131e+01 -1.66176e+01
       H -2.68007e+00 -1.88937e+01 -1.73549e+01
       O -1.75471e+01 -2.14599e+00 -8.49172e+00
       H -1.81336e+01 -2.33144e+00 -9.23555e+00
       H -1.70864e+01 -2.99275e+00 -8.29444e+00
       O -1.90420e+01 -2.20196e+01  1.87237e+01
       H -1.83739e+01 -2.17778e+01  1.80659e+01
       H -1.86169e+01 -2.18469e+01  1.96105e+01
       O  4.15133e+00 -2.97431e+01 -4.25475e+00
       H  4.80323e+00 -2.90335e+01 -4.57421e+00
       H  3.34274e+00 -2.92984e+01 -3.96811e+00
       O -7.94000e+00 -1.24573e+01  1.78360e+01
       H -8.49171e+00 -1.30893e+01  1.73918e+01
       H -7.57502e+00 -1.20796e+01  1.69907e+01
       O  1.61069e+00 -5.14797e+00 -5.90624e+00
       H  1.02115e+00 -4.41333e+00 -5.62098e+00
       H  9.09487e-01 -5.80055e+00 -5.53911e+00
       O -1.02989e+01 -7.13659e+00 -1.66106e+01
       H -9.44207e+00 -6.98634e+00 -1.62431e+01
       H -1.00329e+01 -7.51839e+00 -1.74905e+01
       O  2.20778e+01 -1.64894e+01 -1.07959e+01
       H  2.28446e+01 -1.58929e+01 -1.07451e+01
       H  2.18296e+01 -1.64398e+01 -9.86838e+00
       O -1.20203e+01 -1.91930e+01 -4.62841e+00
       H -1.27642e+01 -1.89308e+01 -4.09638e+00
       H -1.23941e+01 -1.89765e+01 -5.52056e+00
       O -1.79489e+01 -1.53005e+01 -1.82780e+01
       H -1.75080e+01 -1.44994e+01 -1.85714e+01
       H -1.87500e+01 -1.49397e+01 -1.79312e+01
       O -2.28187e+00 -2.42813e+01 -1.80748e+01
       H -1.47512e+00 -2.47310e+01 -1.82853e+01
       H -3.01216e+00 -2.46374e+01 -1.86120e+01
       O  1.97554e+01 -1.97744e+01 -1.60653e+01
       H  1.91811e+01 -2.03670e+01 -1.54900e+01
       H  1.93094e+01 -1.99944e+01 -1.69118e+01
       O  2.04643e+01  1.91193e+01  8.20470e+00
       H  2.02062e+01  1.92936e+01  7.26180e+00
       H  2.07171e+01  2.00476e+01  8.37300e+00
       O -1.36228e+01 -4.33938e+00 -9.87500e+00
       H -1.41068e+01 -5.18839e+00 -9.86710e+00
       H -1.32974e+01 -4.45385e+00 -1.08057e+01
       O -1.29353e+00 -3.02310e+01 -6.77887e+00
       H -2.26385e+00  1.71328e+01 -7.04554e+00
       H -1.35784e+00 -3.04943e+01 -5.81467e+00
       O -2.90344e+00 -1.36590e+01 -1.76081e+01
       H -2.20085e+00 -1.42641e+01 -1.76959e+01
       H -2.89033e+00 -1.33969e+01 -1.85697e+01
       O -1.85871e+01 -2.59838e+01  8.97033e+00
       H -1.83293e+01 -2.69103e+01  8.72617e+00
       H -1.94539e+01 -2.61950e+01  9.37156e+00
       O -1.05956e+00  1.08456e+01 -7.44456e+00
       H -1.26073e+00  1.13843e+01 -8.25481e+00
       H -1.43437e-01  1.10512e+01 -7.22609e+00
       O -2.29826e+01 -8.57196e+00 -6.62694e+00
       H -2.39380e+01 -8.49723e+00 -6.77543e+00
       H -2.26536e+01 -9.03099e+00 -7.42543e+00
       O  2.67247e+01 -1.07579e+01  1.37008e+01
       H  2.71947e+01 -1.15938e+01  1.36340e+01
       H  2.73823e+01 -1.02685e+01  1.41907e+01
       O -1.00855e+01 -2.04325e+01  3.85783e+00
       H -1.00467e+01 -2.00622e+01  4.74956e+00
       H -9.10707e+00 -2.06364e+01  3.76186e+00
       O  1.39441e+01 -2.00653e+01 -8.18835e+00
       H  1.39210e+01 -2.05080e+01 -9.08684e+00
       H  1.34035e+01  2.66638e+01 -7.81456e+00
       O -9.65101e+00  1.69959e+01 -1.99263e-01
       H -1.04861e+01  1.70173e+01 -6.43724e-01
       H -9.49272e+00  1.60855e+01  7.70322e-02
       O -2.22558e+00 -1.00312e+01 -2.26931e+01
       H -3.13413e+00 -9.79813e+00 -2.29622e+01
       H -2.46897e+00 -1.07395e+01 -2.20806e+01
       O  2.69779e+01 -1.24101e+01  2.52088e+01
       H  2.61994e+01 -1.22899e+01  2.46568e+01
       H  2.73928e+01 -1.32600e+01  2.48801e+01
       O  1.76529e+01  5.10534e+00  9.21478e-01
       H  1.73841e+01  5.91432e+00  1.38322e+00
       H  1.68962e+01  4.50268e+00  1.00572e+00
       O  8.94571e+00 -1.48212e+01 -2.37788e+01
       H  8.25390e+00 -1.53058e+01 -2.32074e+01
       H  9.52510e+00 -1.43360e+01 -2.30943e+01
       O -1.05128e+01  2.32163e+01 -7.51817e+00
       H -1.07434e+01  2.40930e+01 -7.10811e+00
       H -9.55758e+00  2.32403e+01 -7.36352e+00
       O -7.30508e+00 -2.11787e+01 -2.06926e+01
       H -7.39710e+00 -2.08896e+01 -2.16267e+01
       H -6.47990e+00 -2.16653e+01 -2.06460e+01
       O  8.71169e-01 -6.57737e+00 -1.88090e+01
       H  3.93107e-01 -6.86788e+00 -1.80310e+01
       H  1.02036e+00 -5.66407e+00 -1.84577e+01
       O -6.00755e+00 -1.08325e+01  1.28978e+01
       H -6.07742e+00 -1.09952e+01  1.38826e+01
       H -5.59611e+00 -1.17122e+01  1.27172e+01
       O -1.01444e+01 -1.59215e+01 -2.61313e+01
       H -9.21281e+00 -1.57751e+01 -2.59400e+01
       H -1.03658e+01 -1.64232e+01 -2.53658e+01
       O  6.51903e+00 -2.43038e+00 -2.95851e+01
       H  6.94673e+00 -1.73466e+00 -2.90258e+01
       H  5.95966e+00 -1.84032e+00 -3.01157e+01
       O -1.03977e+01 -5.26174e+00  2.06018e+01
       H -1.13507e+01 -5.50205e+00  2.06173e+01
       H -1.02980e+01 -5.42270e+00  2.15812e+01
       O -1.16217e+01 -1.58633e+01 -1.09323e+01
       H -1.23217e+01 -1.53516e+01 -1.13288e+01
       H -1.10986e+01 -1.51593e+01 -1.05012e+01
       O -1.97324e+01 -5.87382e+00  2.45533e+01
       H -2.05954e+01 -6.12051e+00  2.48506e+01
       H -1.91801e+01 -6.28568e+00  2.52304e+01
       O  8.79462e+00 -6.34462e+00 -7.00757e+00
       H  9.58308e+00 -5.79336e+00 -7.17763e+00
       H  8.38643e+00 -5.87612e+00 -6.22184e+00
       O -9.10309e+00  1.68693e+00 -4.44516e+00
       H -9.53095e+00  2.56610e+00 -4.66889e+00
       H -8.48202e+00  1.92633e+00 -3.77851e+00
       O -6.62215e+00 -6.84415e-01 -2.64119e+01
       H -6.93944e+00  2.48618e-01 -2.63317e+01
       H -5.69883e+00 -4.86016e-01 -2.63378e+01
       O -3.17231e+00 -1.93475e+01 -9.96465e+00
       H -2.43605e+00 -1.89812e+01 -9.40340e+00
       H -3.52271e+00 -1.84255e+01 -1.02625e+01
       O  2.03136e+00 -1.62357e+01 -2.38853e+01
       H  2.20959e+00 -1.55277e+01 -2.45625e+01
       H  2.74186e+00 -1.68648e+01 -2.41642e+01
       O -1.86847e+00 -1.03059e+01 -1.57777e+01
       H -1.92561e+00 -1.06725e+01 -1.66340e+01
       H -1.24609e+00 -1.09427e+01 -1.53882e+01
       O -5.97215e+00  2.20895e+01 -9.33925e+00
       H -5.06212e+00  2.23296e+01 -9.52211e+00
       H -6.32908e+00  2.22974e+01 -1.01491e+01
       O -3.42473e+00 -2.02679e+01 -5.68398e+00
       H -2.92014e+00 -2.10102e+01 -5.27180e+00
       H -2.88280e+00 -1.95320e+01 -5.40958e+00
       O -3.72458e-01  1.33018e+01 -1.34982e+01
       H  4.66602e-02  1.26836e+01 -1.40632e+01
       H -1.20683e+00  1.34815e+01 -1.39833e+01
       O -7.53968e+00 -1.59356e+01 -2.50876e+01
       H -7.53443e+00 -1.54869e+01 -2.41867e+01
       H -6.66058e+00 -1.56013e+01 -2.53933e+01
       O -1.74177e+01 -1.73462e+01 -9.90634e+00
       H -1.75789e+01 -1.82150e+01 -9.42240e+00
       H -1.83233e+01 -1.70707e+01 -9.96352e+00
       O -2.07877e+01 -1.96556e+01 -1.83578e+01
       H -2.13326e+01 -1.99888e+01 -1.76118e+01
       H -2.01076e+01 -1.92839e+01 -1.78385e+01
       O  6.24138e+00  2.40415e+01 -1.09838e+01
       H  7.19719e+00  2.39027e+01 -1.10461e+01
       H  6.07640e+00  2.31946e+01 -1.05470e+01
       O -6.96012e+00  2.28854e+01 -2.27090e+01
       H -6.26014e+00  2.23780e+01 -2.22423e+01
       H -6.37755e+00  2.34499e+01 -2.32504e+01
       O  2.25164e+01 -1.99034e+01  1.46423e+01
       H  2.21740e+01 -1.94621e+01  1.38485e+01
       H  2.25698e+01 -1.91838e+01  1.52735e+01
       O -6.76569e+00 -1.22468e+01 -1.76673e+01
       H -6.11253e+00 -1.25076e+01 -1.70142e+01
       H -6.95806e+00 -1.14448e+01 -1.72522e+01
       O  1.91165e+01  2.48022e+01 -3.70693e+00
       H  1.86188e+01  2.56497e+01 -3.63850e+00
       H  1.95100e+01  2.47419e+01 -2.78795e+00
       O -2.12283e+01 -6.41454e+00 -1.11853e+01
       H -2.11797e+01 -5.94121e+00 -1.20479e+01
       H -2.09442e+01 -5.68949e+00 -1.06442e+01
       O -2.46180e+01 -6.72346e-01 -2.26689e+00
       H -2.45925e+01  2.36283e-01 -1.90647e+00
       H -2.46612e+01 -1.20309e+00 -1.47923e+00
       O -5.18156e+00 -8.61752e+00 -6.71953e+00
       H -5.93184e+00 -9.09052e+00 -6.46624e+00
       H -4.72965e+00 -9.24299e+00 -7.34160e+00
       O -1.54119e+01  1.02847e+01  1.73668e+01
       H -1.58478e+01  1.07092e+01  1.81662e+01
       H -1.48093e+01  1.10131e+01  1.72138e+01
       O  4.49396e+00  2.25362e+01 -5.06121e+00
       H  3.65935e+00 -2.46979e+01 -5.47200e+00
       H  4.84497e+00  2.34193e+01 -4.99995e+00
       O -1.94859e+01 -1.10722e+01 -9.04923e+00
       H -1.89961e+01 -1.08410e+01 -8.20163e+00
       H -2.02979e+01 -1.06573e+01 -8.84208e+00
       O -1.77348e+01  1.44253e+01 -1.36157e+01
       H -1.77453e+01  1.36383e+01 -1.30106e+01
       H -1.82434e+01  1.40942e+01 -1.43899e+01
       O -1.91287e+01 -1.42494e+01 -4.98344e+00
       H -1.91640e+01 -1.52376e+01 -4.81640e+00
       H -1.81875e+01 -1.42388e+01 -5.17790e+00
       O -2.89472e+00 -3.10759e+00 -1.13572e+01
       H -3.30917e+00 -3.08758e+00 -1.05076e+01
       H -3.78005e+00 -3.38138e+00 -1.18168e+01
       O -6.69497e+00 -1.32163e+01 -2.22271e+01
       H -6.03722e+00 -1.32725e+01 -2.15100e+01
       H -6.41285e+00 -1.23928e+01 -2.26775e+01
       O -8.28296e-01 -2.18561e+01 -1.72188e+01
       H -5.74903e-01 -2.14709e+01 -1.80831e+01
       H -1.19997e+00 -2.27199e+01 -1.73842e+01
       O  1.91838e+01 -1.87324e+01 -6.70603e+00
       H  1.98068e+01 -1.93281e+01 -7.03783e+00
       H  1.83863e+01 -1.91737e+01 -7.10533e+00
       O -1.21662e+01 -7.72023e+00 -2.35228e+01
       H -1.17927e+01 -8.35756e+00 -2.42573e+01
       H -1.24261e+01 -6.97670e+00 -2.41655e+01
       O -2.36061e+01 -1.12241e+01 -1.53185e+01
       H -2.37547e+01 -1.20407e+01 -1.47887e+01
       H -2.36731e+01 -1.05361e+01 -1.46062e+01
       O -2.01596e+00 -1.35901e+01 -1.06611e+01
       H -2.99669e+00 -1.35794e+01 -1.04578e+01