11115
# CELL(abcABC):   47.66706    47.66706    47.66706    90.00000    90.00000    90.00000  Step:       10000  Bead:       0 positions{angstrom}  cell{angstrom}
       C  3.48206e+00  1.98432e+00  6.54752e+00
       H  2.43398e+00  2.18563e+00  6.26991e+00
       H  4.09876e+00  2.79418e+00  6.14426e+00
       H  3.71250e+00  1.95710e+00  7.62344e+00
       C  3.93366e+00  7.10114e-01  5.89895e+00
       O  3.12626e+00 -5.82495e-02  5.43490e+00
       N  5.24286e+00  5.43137e-01  5.78490e+00
       H  5.93898e+00  1.19218e+00  6.12054e+00
       C  5.78680e+00 -7.52953e-01  5.28269e+00
       H  5.20865e+00 -9.04829e-01  4.37663e+00
       C  7.20692e+00 -5.96022e-01  4.82177e+00
       H  7.83432e+00 -3.47908e-01  5.65166e+00
       H  7.23289e+00  2.38712e-01  4.20306e+00
       C  7.83013e+00 -1.71936e+00  3.98481e+00
       O  9.08195e+00 -1.85137e+00  3.85866e+00
       O  7.01349e+00 -2.49978e+00  3.36412e+00
       H  7.48641e+00 -3.16761e+00  2.66171e+00
       C  5.67941e+00 -1.97605e+00  6.29267e+00
       O  5.30394e+00 -3.07142e+00  5.87988e+00
       N  6.08663e+00 -1.77023e+00  7.55276e+00
       H  6.21436e+00 -2.50297e+00  8.18237e+00
       H  6.29083e+00 -8.55234e-01  7.79286e+00
       O -2.07789e+01 -1.77848e+01 -4.22881e+00
       H -2.05111e+01 -1.72985e+01 -4.97641e+00
       H -2.14460e+01 -1.84185e+01 -4.58729e+00
       O -2.81584e+01 -1.32301e+01 -3.22326e+01
       H -2.73687e+01 -1.35688e+01 -3.25325e+01
       H -2.85460e+01 -1.29991e+01 -3.30736e+01
       O -1.92701e+01 -7.87551e+00  4.78578e-01
       H -1.91594e+01 -7.55795e+00 -4.33099e-01
       H -1.83574e+01 -7.83197e+00  7.73294e-01
       O -1.64470e+01 -2.90712e+01 -1.09621e+01
       H -1.69143e+01 -2.83254e+01 -1.13615e+01
       H -1.65849e+01 -2.96663e+01 -1.17089e+01
       O -2.25881e+01 -1.92144e+01 -5.49404e+00
       H -2.24570e+01 -2.00333e+01 -6.08464e+00
       H -2.28715e+01 -1.85038e+01 -6.12894e+00
       O -2.35566e+01 -2.53447e+01 -1.82634e+01
       H -2.39638e+01 -2.61753e+01 -1.85633e+01
       H -2.26472e+01 -2.56463e+01 -1.80704e+01
       O -2.58476e+01 -2.38373e+01 -1.78997e+01
       H -2.63336e+01 -2.46347e+01 -1.75815e+01
       H -2.49870e+01 -2.42499e+01 -1.79098e+01
       O -2.23825e+01 -1.49541e+01 -1.53907e+01
       H -2.24553e+01 -1.46122e+01 -1.62922e+01
       H -2.16296e+01 -1.43983e+01 -1.51214e+01
       O -1.17116e+01 -2.90440e+01 -2.24451e+01
       H -1.11788e+01 -2.90069e+01 -2.16954e+01
       H -1.21309e+01 -2.81118e+01 -2.24408e+01
       O -7.98761e+00 -2.72332e+01 -6.19720e+00
       H -8.75451e+00 -2.66594e+01 -5.93107e+00
       H -8.23140e+00 -2.75436e+01 -7.07288e+00
       O -1.69906e+01 -1.34685e+01 -2.15581e+01
       H -1.62336e+01 -1.40395e+01 -2.16425e+01
       H -1.66146e+01 -1.25911e+01 -2.16623e+01
       O -8.03026e+00  9.54203e+00 -3.25520e+00
       H -8.78485e+00  9.21838e+00 -2.64977e+00
       H -8.23056e+00  1.04482e+01 -3.39096e+00
       O -1.01838e+01 -2.13237e+01 -2.28577e+01
       H -1.10018e+01 -2.18281e+01 -2.30776e+01
       H -9.58493e+00 -2.19711e+01 -2.30353e+01
       O -1.76882e+01 -7.23281e+00 -9.31749e+00
       H -1.79152e+01 -6.90168e+00 -1.02209e+01
       H -1.83353e+01 -6.71359e+00 -8.76342e+00
       O -2.27003e+01 -3.40542e+01 -3.16846e+01
       H -2.19485e+01 -3.45210e+01 -3.12189e+01
       H -2.23146e+01 -3.39243e+01 -3.25786e+01
       O -5.25655e+00 -2.33937e+01 -1.63194e+01
       H -5.50596e+00 -2.25428e+01 -1.58824e+01
       H -4.28469e+00 -2.34579e+01 -1.62730e+01
       O -3.00099e+01 -2.90060e+01  4.39663e+00
       H -2.94372e+01 -2.93518e+01  5.12690e+00
       H -3.05125e+01 -2.83250e+01  4.89740e+00
       O -1.48813e+01 -1.02292e+01 -1.86969e+01
       H -1.40464e+01 -1.05890e+01 -1.82520e+01
       H -1.55266e+01 -1.06745e+01 -1.80833e+01
       O -1.65192e+01 -1.54292e+01  1.52217e+00
       H -1.59101e+01 -1.48518e+01  1.97939e+00
       H -1.73268e+01 -1.49053e+01  1.56236e+00
       O -1.90293e+01  1.39986e+00 -3.46470e+01
       H -1.86243e+01  1.62071e+00 -3.54764e+01
       H -1.93785e+01  2.31382e+00 -3.42939e+01
       O -1.33170e+01 -3.55206e+01 -9.20886e+00
       H -1.26679e+01 -3.55807e+01 -8.48055e+00
       H -1.30484e+01 -3.62112e+01 -9.83099e+00
       O -3.69186e+01 -8.09043e+00 -2.54903e+01
       H -3.68540e+01 -8.82033e+00 -2.61926e+01
       H -3.72986e+01 -8.48238e+00 -2.47083e+01
       O -7.45335e+00 -7.10960e+00 -2.23782e+01
       H -7.97625e+00 -6.66133e+00 -2.30554e+01
       H -6.55327e+00 -6.67079e+00 -2.24083e+01
       O -2.86742e+01 -1.54085e+01 -1.67662e+01
       H -2.93176e+01 -1.47801e+01 -1.63911e+01
       H -2.85884e+01 -1.50284e+01 -1.76582e+01
       O -1.23079e+01 -3.55794e+01 -2.98973e+01
       H -1.28522e+01 -3.56111e+01 -2.90780e+01
       H -1.22290e+01 -3.46270e+01 -3.01679e+01
       O -1.80498e+01 -1.25613e+01 -1.87164e+01
       H -1.74984e+01 -1.24085e+01 -1.79135e+01
       H -1.72841e+01 -1.26513e+01 -1.93664e+01
       O -9.72510e-01  1.23668e+01 -6.46956e+00
       H -1.12754e+00  1.32875e+01 -6.20432e+00
       H -1.68576e+00  1.22353e+01 -7.18664e+00
       O -1.61536e+01 -1.47856e+00 -1.60998e+00
       H -1.61485e+01 -2.25891e+00 -1.02254e+00
       H -1.70895e+01 -1.23355e+00 -1.66687e+00
       O -2.05244e+01 -1.34947e+01 -1.07139e+01
       H -2.00612e+01 -1.32756e+01 -9.85587e+00
       H -2.14500e+01 -1.34301e+01 -1.03764e+01
       O -9.12544e+00 -2.08856e+01 -8.22676e+00
       H -8.34421e+00 -2.07583e+01 -8.79301e+00
       H -8.77679e+00 -2.12186e+01 -7.39170e+00
       O  9.91129e+00  4.68162e+00 -3.73789e+01
       H  1.03333e+01  4.28683e+00 -3.66261e+01
       H  1.05758e+01  4.32459e+00 -3.80575e+01
       O  1.05456e+00 -2.72895e+01 -1.36536e+01
       H  8.85279e-01 -2.63893e+01 -1.36238e+01
       H  4.89683e-01 -2.76918e+01 -1.29815e+01
       O  2.10249e+00 -2.52595e-01 -7.33830e+00
       H  2.75323e+00  2.11885e-01 -6.83578e+00
       H  1.74956e+00  3.32045e-01 -8.01964e+00
       O -3.06548e+01 -1.43617e+01 -6.49061e+00
       H -2.98622e+01 -1.38094e+01 -6.45850e+00
       H -3.10023e+01 -1.39469e+01 -7.35190e+00
       O -1.26663e+01 -1.71310e+01 -1.68169e+01
       H -1.21646e+01 -1.76602e+01 -1.61967e+01
       H -1.35214e+01 -1.75250e+01 -1.66264e+01
       O -1.65277e+01 -1.88305e+01 -2.94023e+01
       H -1.67606e+01 -1.83470e+01 -3.02079e+01
       H -1.74186e+01 -1.91424e+01 -2.91728e+01
       O -1.24066e+01 -1.42217e+01  8.03672e+00
       H -1.21024e+01 -1.50228e+01  7.57334e+00
       H -1.26124e+01 -1.36465e+01  7.26837e+00
       O -1.54893e+01 -3.83193e+01 -9.43920e+00
       H -1.60412e+01 -3.75433e+01 -9.42888e+00
       H -1.60309e+01 -3.88377e+01 -8.88058e+00
       O -8.16609e+00 -8.53615e+00  6.29525e+00
       H -8.81624e+00 -7.93036e+00  6.70300e+00
       H -7.85614e+00 -9.14625e+00  6.99308e+00
       O  3.99992e+00 -1.09662e+01 -3.67085e+01
       H  3.16417e+00 -1.08685e+01 -3.71907e+01
       H  4.23782e+00 -1.01107e+01 -3.63678e+01
       O -5.32143e+00 -2.79244e+01 -1.83249e+01
       H -4.57496e+00 -2.79171e+01 -1.76505e+01
       H -5.09626e+00 -2.86911e+01 -1.89265e+01
       O -2.63111e+01 -1.47704e+01 -9.06745e+00
       H -2.58324e+01 -1.51343e+01 -9.85939e+00
       H -2.61756e+01 -1.38353e+01 -9.17774e+00
       O -5.38781e+00 -1.07409e+01 -1.62218e+01
       H -4.57122e+00 -1.10040e+01 -1.58298e+01
       H -5.01220e+00 -1.00400e+01 -1.67392e+01
       O -2.32845e+01 -5.54317e+01 -2.59045e+01
       H -2.32609e+01 -5.63801e+01 -2.60785e+01
       H -2.26027e+01 -5.52113e+01 -2.52952e+01
       O -1.63330e+01 -1.00392e+01 -4.04149e+01
       H -1.67274e+01 -1.00616e+01 -4.12990e+01
       H -1.64183e+01 -1.09870e+01 -4.00770e+01
       O -1.03824e+01 -2.48854e+00 -3.18193e+01
       H -9.66737e+00 -1.89842e+00 -3.15611e+01
       H -1.05621e+01 -3.03726e+00 -3.10255e+01
       O -3.46656e+01 -2.20815e+01 -1.19588e+01
       H -3.54742e+01 -2.14409e+01 -1.21157e+01
       H -3.41352e+01 -2.14828e+01 -1.12953e+01
       O -1.67865e+01 -9.31572e+00 -7.88187e+00
       H -1.66449e+01 -9.90528e+00 -8.61261e+00
       H -1.69929e+01 -8.45093e+00 -8.34409e+00
       O -1.80636e+01 -1.88131e+01 -1.94918e+01
       H -1.79242e+01 -1.78935e+01 -1.97328e+01
       H -1.72936e+01 -1.89740e+01 -1.88968e+01
       O -2.89453e-02 -3.42533e+00  2.98807e+00
       H  1.18607e-01 -2.48050e+00  3.13841e+00
       H  5.33568e-01 -3.80284e+00  3.67768e+00
       O -1.69159e+00  1.80238e+00  8.66788e+00
       H -2.14071e+00  9.96360e-01  8.50851e+00
       H -1.52287e+00  2.12383e+00  7.72749e+00
       O -2.67283e+00  7.78541e-01 -6.14996e+00
       H -2.49295e+00  8.55523e-01 -7.10344e+00
       H -3.61043e+00  6.19434e-01 -6.23076e+00
       O -1.23220e+01 -8.34302e+00 -1.29244e+01
       H -1.21034e+01 -7.88997e+00 -1.20286e+01
       H -1.13618e+01 -8.46491e+00 -1.31974e+01
       O -1.35381e+01  1.07903e+00 -1.14196e+01
       H -1.30026e+01  3.41094e-01 -1.17063e+01
       H -1.43973e+01  6.42385e-01 -1.14443e+01
       O -1.20864e+01 -1.65402e+01 -5.86019e+00
       H -1.12495e+01 -1.62056e+01 -6.22648e+00
       H -1.20639e+01 -1.74941e+01 -6.03232e+00
       O -1.45825e+01 -3.02803e+01 -2.86206e+01
       H -1.39382e+01 -2.96391e+01 -2.84133e+01
       H -1.52915e+01 -2.97214e+01 -2.91062e+01
       O -1.85957e+01 -3.08986e+01 -9.66025e+00
       H -1.78088e+01 -3.04013e+01 -9.28830e+00
       H -1.84240e+01 -3.18157e+01 -9.34136e+00
       O -1.79214e+01 -3.59529e+01 -8.77582e+00
       H -1.86564e+01 -3.65922e+01 -8.90291e+00
       H -1.76186e+01 -3.62657e+01 -7.85734e+00
       O  2.05140e+00  4.63913e+00 -3.90481e+00
       H  1.38980e+00  5.29527e+00 -4.10135e+00
       H  2.57823e+00  4.57319e+00 -4.74459e+00
       O -8.54281e+00 -3.27657e+01 -2.34185e+01
       H -9.39027e+00 -3.32617e+01 -2.33282e+01
       H -8.23116e+00 -3.27047e+01 -2.25383e+01
       O  3.40873e+00 -3.38192e+00 -2.72753e+01
       H  3.48269e+00 -2.90881e+00 -2.81018e+01
       H  4.30045e+00 -3.72487e+00 -2.70650e+01
       O -3.60794e+01 -1.64781e+01 -1.20767e+01
       H -3.61984e+01 -1.56855e+01 -1.25728e+01
       H -3.51235e+01 -1.63713e+01 -1.18875e+01
       O -1.27077e+01 -4.86122e+01 -2.46643e+01
       H -1.19125e+01 -4.89640e+01 -2.50212e+01
       H -1.28806e+01 -4.92318e+01 -2.38910e+01
       O -5.35537e+00 -2.46874e+01 -8.49707e+00
       H -5.19083e+00 -2.37699e+01 -8.06145e+00
       H -6.28733e+00 -2.46001e+01 -8.79492e+00
       O -5.04035e+00 -1.87802e+01 -1.82964e+01
       H -5.90710e+00 -1.90626e+01 -1.78802e+01
       H -4.37267e+00 -1.91647e+01 -1.76834e+01
       O -1.77827e+01 -3.32593e+01 -5.93805e+00
       H -1.80298e+01 -3.23949e+01 -5.52849e+00
       H -1.71035e+01 -3.33448e+01 -5.26009e+00
       O -3.34416e+01 -1.02607e+01 -1.13264e+01
       H -3.27457e+01 -1.01128e+01 -1.20094e+01
       H -3.32453e+01 -1.11633e+01 -1.08412e+01
       O -2.08615e+01 -2.09701e+01 -2.51212e+01
       H -2.04287e+01 -2.18258e+01 -2.53828e+01
       H -2.09647e+01 -2.11293e+01 -2.42017e+01
       O -2.17283e+01  5.70642e-01 -2.21239e+01
       H -2.15897e+01 -3.56846e-01 -2.18230e+01
       H -2.08658e+01  9.19606e-01 -2.19562e+01
       O -1.88318e+01 -1.08075e+01 -1.14412e+01
       H -1.95644e+01 -1.13166e+01 -1.10422e+01
       H -1.92833e+01 -1.00087e+01 -1.17162e+01
       O -2.13975e+01 -2.73543e+01  7.64878e+00
       H -2.15650e+01 -2.81552e+01  8.16749e+00
       H -2.11856e+01 -2.77394e+01  6.78460e+00
       O  2.28611e+00 -1.48634e+01 -8.35108e+00
       H  1.93591e+00 -1.57571e+01 -8.16165e+00
       H  2.79357e+00 -1.49920e+01 -9.22125e+00
       O -1.62799e+01 -2.84749e+01 -3.01781e+01
       H -1.71177e+01 -2.84843e+01 -3.07358e+01
       H -1.55663e+01 -2.82635e+01 -3.08554e+01
       O -1.92485e+01 -1.96216e+01 -2.89758e+01
       H -2.00521e+01 -1.91641e+01 -2.86487e+01
       H -1.95563e+01 -2.05127e+01 -2.90641e+01
       O -2.86217e+01 -2.91349e+01 -4.18383e-01
       H -2.80887e+01 -2.98654e+01 -5.48924e-01
       H -2.86463e+01 -2.89698e+01  4.99346e-01
       O -2.77057e+01 -2.48154e+01 -3.24237e+01
       H -2.68185e+01 -2.48793e+01 -3.21759e+01
       H -2.80624e+01 -2.43321e+01 -3.16917e+01
       O -1.98838e+00 -1.59498e+01  1.26402e+01
       H -2.30433e+00 -1.50856e+01  1.30064e+01
       H -1.47919e+00 -1.63819e+01  1.34285e+01
       O -3.89687e+01 -1.26860e+01 -1.36606e+00
       H -3.88247e+01 -1.36480e+01 -1.59700e+00
       H -3.80206e+01 -1.24460e+01 -1.33508e+00
       O -1.89008e+01 -2.41938e+01 -2.86805e+00
       H -1.93892e+01 -2.48822e+01 -2.40501e+00
       H -1.95845e+01 -2.35958e+01 -3.02805e+00
       O -1.91848e+01 -2.65722e+01 -2.72939e+01
       H -1.82911e+01 -2.68348e+01 -2.74928e+01
       H -1.96274e+01 -2.69086e+01 -2.80888e+01
       O -9.04331e+00 -1.81085e+01 -9.64607e+00
       H -9.08108e+00 -1.89223e+01 -9.09922e+00
       H -8.09713e+00 -1.78513e+01 -9.46831e+00
       O -1.50193e+01 -1.24448e+01 -1.22015e+01
       H -1.57864e+01 -1.28454e+01 -1.17726e+01
       H -1.49978e+01 -1.16767e+01 -1.15722e+01
       O -2.60771e+01  1.53993e+01 -1.32627e+01
       H -2.64136e+01  1.47613e+01 -1.39034e+01
       H -2.62539e+01  1.62276e+01 -1.36966e+01
       O -8.85539e+00 -2.48762e+01 -2.07765e+01
       H -8.88912e+00 -2.58795e+01 -2.08006e+01
       H -9.68086e+00 -2.46127e+01 -2.12531e+01
       O -1.04163e+01 -2.29671e+01 -3.57560e+01
       H -9.64910e+00 -2.23987e+01 -3.59043e+01
       H -1.05360e+01 -2.30738e+01 -3.47906e+01
       O -6.81011e+00 -2.41940e+01 -1.40717e+01
       H -6.23278e+00 -2.34973e+01 -1.44323e+01
       H -7.30300e+00 -2.43212e+01 -1.48617e+01
       O -1.04791e+01  1.48299e+00 -1.83834e+01
       H -9.87289e+00  1.40093e+00 -1.91792e+01
       H -1.13190e+01  1.97348e+00 -1.86519e+01
       O -1.74578e+01 -1.96531e+01 -3.21323e+01
       H -1.72889e+01 -2.00255e+01 -3.30038e+01
       H -1.71608e+01 -2.04665e+01 -3.16941e+01
       O -4.56462e+01 -2.67493e+01 -1.04617e+01
       H -4.49495e+01 -2.73991e+01 -1.01478e+01
       H -4.61065e+01 -2.73483e+01 -1.09927e+01
       O -1.58416e+01 -2.26588e+01  8.82489e+00
       H -1.62961e+01 -2.34188e+01  8.37196e+00
       H -1.62795e+01 -2.18875e+01  8.39312e+00
       O -6.75582e+00 -3.66698e+00 -2.69581e+00
       H -5.86746e+00 -3.30403e+00 -2.64084e+00
       H -7.34191e+00 -2.93247e+00 -2.94584e+00
       O -1.47291e+01 -2.20292e+01 -1.47142e+01
       H -1.40552e+01 -2.20398e+01 -1.53830e+01
       H -1.54729e+01 -2.21957e+01 -1.53403e+01
       O  7.23740e+00 -1.05822e+01  1.20263e+01
       H  7.14704e+00 -1.09272e+01  1.11024e+01
       H  6.56871e+00 -9.85922e+00  1.20733e+01
       O -7.92229e+00 -3.34057e+00 -8.50269e+00
       H -7.53049e+00 -4.18930e+00 -8.66004e+00
       H -8.05530e+00 -3.31180e+00 -7.54530e+00
       O  4.18451e+00  1.10244e+01  1.02719e+00
       H  4.84423e+00  1.08906e+01  3.21007e-01
       H  3.34962e+00  1.07557e+01  6.26765e-01
       O -1.53621e+01 -7.78230e+00 -3.00969e+01
       H -1.62295e+01 -8.11816e+00 -2.97450e+01
       H -1.56635e+01 -7.71478e+00 -3.10510e+01
       O -3.92673e+00 -1.51017e+01 -3.12473e+01
       H -4.90876e+00 -1.51111e+01 -3.11808e+01
       H -3.72688e+00 -1.41888e+01 -3.15940e+01
       O -1.47528e+01 -1.21605e+01 -2.84686e+01
       H -1.43431e+01 -1.19979e+01 -2.75636e+01
       H -1.51027e+01 -1.30680e+01 -2.84253e+01
       O -1.85155e+01 -2.97977e+01 -3.13723e+01
       H -1.80905e+01 -3.01641e+01 -3.20896e+01
       H -1.86406e+01 -3.05351e+01 -3.07365e+01
       O -5.90792e+00  2.39558e+00  2.27007e+00
       H -5.66182e+00  1.45091e+00  2.05061e+00
       H -5.17731e+00  2.79838e+00  1.78048e+00
       O -1.91707e+01 -1.98867e+01 -3.85582e+00
       H -1.84541e+01 -1.96037e+01 -3.19855e+00
       H -1.96980e+01 -1.90639e+01 -3.84639e+00
       O  5.78742e-01 -4.84886e+00 -1.25152e+01
       H  1.18743e+00 -5.47478e+00 -1.30151e+01
       H  1.03134e+00 -4.98463e+00 -1.16322e+01
       O -4.93493e+00 -1.38263e+01 -5.67354e+00
       H -5.16313e+00 -1.40648e+01 -4.79530e+00
       H -5.34492e+00 -1.29282e+01 -5.61397e+00
       O  1.40312e+01  1.27749e+01 -2.69051e+01
       H  1.41361e+01  1.18597e+01 -2.72249e+01
       H  1.37800e+01  1.33081e+01 -2.77380e+01
       O -2.48043e+01 -2.09881e+01 -8.03410e+00
       H -2.39894e+01 -2.09463e+01 -7.63437e+00
       H -2.53310e+01 -2.13552e+01 -7.30864e+00
       O -2.49802e+01 -3.53913e+01 -1.11659e+01
       H -2.45248e+01 -3.59822e+01 -1.05792e+01
       H -2.59156e+01 -3.53804e+01 -1.08597e+01
       O -1.10114e+01 -2.45365e+01 -1.04716e+01
       H -1.03018e+01 -2.46407e+01 -1.11495e+01
       H -1.13251e+01 -2.36364e+01 -1.06712e+01
       O -6.62519e+00 -2.61618e+01 -1.66051e+01
       H -6.05275e+00 -2.53300e+01 -1.64710e+01
       H -6.23529e+00 -2.65215e+01 -1.74077e+01
       O -1.85926e+01 -8.54537e+00 -1.73586e+01
       H -1.87482e+01 -9.51513e+00 -1.73925e+01
       H -1.79760e+01 -8.52570e+00 -1.66161e+01
       O -2.09793e+01 -2.82863e+01 -1.97453e+01
       H -2.08851e+01 -2.75062e+01 -2.03244e+01
       H -2.17332e+01 -2.80864e+01 -1.91120e+01
       O -1.12168e+01 -6.87837e+00 -3.31104e+00
       H -1.10466e+01 -6.27005e+00 -4.01891e+00
       H -1.04239e+01 -6.78766e+00 -2.70350e+00
       O -1.76585e+01 -4.36908e+01 -4.60648e+01
       H -1.73480e+01 -4.28589e+01 -4.64641e+01
       H -1.79970e+01 -4.41078e+01 -4.68698e+01
       O -1.57674e+01 -1.87137e+01 -8.79896e+00
       H -1.48070e+01 -1.87162e+01 -8.87850e+00
       H -1.59550e+01 -1.89390e+01 -7.89177e+00
       O -1.53522e+01 -3.52050e+01 -2.22763e+01
       H -1.60409e+01 -3.54593e+01 -2.15894e+01
       H -1.59906e+01 -3.52028e+01 -2.29845e+01
       O -1.59074e+01 -1.12485e+01 -9.56064e+00
       H -1.63646e+01 -1.20234e+01 -9.14998e+00
       H -1.52264e+01 -1.09811e+01 -8.89897e+00
       O -2.60253e+01 -1.83929e+01 -2.10005e+01
       H -2.60004e+01 -1.88774e+01 -2.18328e+01
       H -2.51564e+01 -1.79668e+01 -2.09363e+01
       O -1.28792e+01 -1.48434e+01 -3.72346e+00
       H -1.30345e+01 -1.55624e+01 -3.08943e+00
       H -1.23823e+01 -1.54340e+01 -4.35916e+00
       O -8.50710e+00 -2.49017e+01 -4.30751e+01
       H -9.02210e+00 -2.43526e+01 -4.37184e+01
       H -9.22701e+00 -2.54157e+01 -4.27665e+01
       O -3.35084e+00 -2.21218e+01 -1.99813e+01
       H -4.29507e+00 -2.19641e+01 -2.01620e+01
       H -3.20872e+00 -2.30647e+01 -1.97967e+01
       O -1.84385e+01 -1.51556e+01 -1.74709e+01
       H -1.88561e+01 -1.60152e+01 -1.72022e+01
       H -1.90665e+01 -1.48040e+01 -1.81446e+01
       O -2.37432e+01 -8.66238e+00 -1.80603e+01
       H -2.44547e+01 -8.00065e+00 -1.79202e+01
       H -2.33225e+01 -8.37117e+00 -1.88812e+01
       O -2.94472e+00  8.05866e-01 -1.96547e+01
       H -2.85294e+00  2.13993e-01 -2.03963e+01
       H -2.97048e+00  1.98423e-01 -1.88631e+01
       O -1.49217e-01 -4.10571e+00  6.56294e+00
       H  2.39842e-01 -3.42726e+00  6.05670e+00
       H -4.73427e-01 -3.55820e+00  7.30210e+00
       O -1.93093e+01 -1.75431e+01  6.48208e+00
       H -1.84757e+01 -1.72559e+01  6.92959e+00
       H -1.98923e+01 -1.75365e+01  7.21286e+00
       O -1.96791e+01 -1.24285e+01 -8.29293e+00
       H -1.87090e+01 -1.26366e+01 -8.22556e+00
       H -1.97669e+01 -1.15962e+01 -7.81363e+00
       O -3.13084e+01 -1.71538e+01 -8.14814e+00
       H -3.03873e+01 -1.68802e+01 -8.15457e+00
       H -3.12189e+01 -1.79900e+01 -7.59070e+00
       O -2.22480e+00 -1.07298e+01 -1.99867e+00
       H -2.51758e+00 -9.89938e+00 -2.32127e+00
       H -1.89301e+00 -1.11782e+01 -2.77904e+00
       O -2.62974e+01 -1.78458e+01 -4.39353e+01
       H -2.52702e+01 -1.77627e+01 -4.38905e+01
       H -2.63756e+01 -1.84690e+01 -4.32178e+01
       O -1.05299e+01 -2.38269e+01 -1.40120e+01
       H -1.01833e+01 -2.30590e+01 -1.34980e+01
       H -1.15199e+01 -2.37756e+01 -1.39035e+01
       O -9.92238e-01 -1.32943e+01 -2.33068e+01
       H -1.51118e+00 -1.36052e+01 -2.25061e+01
       H -1.41803e-01 -1.30935e+01 -2.28582e+01
       O -5.64090e+01 -1.49412e+01  3.29206e-01
       H -5.61179e+01 -1.41850e+01  8.57820e-01
       H -5.55763e+01 -1.49721e+01 -2.59854e-01
       O -5.02408e+00 -1.48278e+01 -8.32861e+00
       H -4.87808e+00 -1.43478e+01 -7.47626e+00
       H -4.83492e+00 -1.40882e+01 -8.93837e+00
       O -1.50461e+01 -1.54954e+01  1.98856e+01
       H -1.53093e+01 -1.63078e+01  2.02918e+01
       H -1.46594e+01 -1.51142e+01  2.07076e+01
       O -1.12112e+01 -3.51280e+01 -3.60682e+01
       H -1.09201e+01 -3.54639e+01 -3.69211e+01
       H -1.08545e+01 -3.42253e+01 -3.61904e+01
       O -1.49967e+01 -2.23791e+01 -9.99918e+00
       H -1.59059e+01 -2.25828e+01 -9.89780e+00
       H -1.44972e+01 -2.27865e+01 -9.32452e+00
       O -1.42736e+01 -1.15028e+01  1.11610e+01
       H -1.40944e+01 -1.10595e+01  1.19817e+01
       H -1.50090e+01 -1.09209e+01  1.09315e+01
       O -1.54548e+01 -5.17529e+00 -6.54570e+00
       H -1.53242e+01 -6.09541e+00 -6.36768e+00
       H -1.48849e+01 -4.78768e+00 -5.92897e+00
       O -3.25804e+01 -6.78778e+00 -3.82179e+00
       H -3.17675e+01 -6.90664e+00 -3.31340e+00
       H -3.21746e+01 -6.45216e+00 -4.63024e+00
       O -1.68741e+01 -2.20522e+01 -2.78365e+01
       H -1.67340e+01 -2.30009e+01 -2.76238e+01
       H -1.78968e+01 -2.19679e+01 -2.79919e+01
       O -9.99992e+00 -1.04516e+01  1.55191e+00
       H -9.88601e+00 -1.03341e+01  2.47539e+00
       H -9.50853e+00 -1.12381e+01  1.46852e+00
       O -1.31269e+01 -3.61658e+01 -2.49618e+00
       H -1.36946e+01 -3.53292e+01 -2.48399e+00
       H -1.35172e+01 -3.67368e+01 -1.83907e+00
       O -8.87919e+00 -3.69533e+01 -7.16698e+00
       H -9.62599e+00 -3.75312e+01 -7.08073e+00
       H -8.25337e+00 -3.73178e+01 -6.53252e+00
       O -4.20767e+00 -7.41876e+00 -6.23491e-01
       H -3.29401e+00 -7.68136e+00 -8.76472e-01
       H -4.08224e+00 -6.44599e+00 -5.17243e-01
       O -2.52942e+01 -2.77852e+01  7.56633e-01
       H -2.59208e+01 -2.81743e+01  1.36131e+00
       H -2.49583e+01 -2.70906e+01  1.26301e+00
       O  6.36984e+00  3.39049e+00 -2.93256e-01
       H  5.83190e+00  2.66084e+00 -5.99425e-01
       H  6.56066e+00  3.13530e+00  6.56542e-01
       O -1.14874e+01 -2.71989e+01 -1.21663e+01
       H -1.13072e+01 -2.64833e+01 -1.27911e+01
       H -1.19494e+01 -2.67861e+01 -1.13792e+01
       O -1.84306e+01 -2.55488e+01 -6.54225e+00
       H -1.79676e+01 -2.61406e+01 -7.13515e+00
       H -1.81483e+01 -2.47220e+01 -6.92140e+00
       O -2.19950e+01 -1.93519e+01 -1.53559e+01
       H -2.22101e+01 -1.84961e+01 -1.57303e+01
       H -2.13353e+01 -1.90713e+01 -1.46978e+01
       O -2.74341e+00 -8.74322e+00 -3.81201e+00
       H -2.47377e+00 -8.07551e+00 -3.25140e+00
       H -2.19687e+00 -8.49566e+00 -4.59423e+00
       O -9.06610e+00 -1.51787e+01 -1.37143e+01
       H -9.67718e+00 -1.43937e+01 -1.36776e+01
       H -9.35596e+00 -1.55826e+01 -1.45603e+01
       O -1.46914e+01 -2.66197e+01 -1.10309e+01
       H -1.41243e+01 -2.62517e+01 -1.03854e+01
       H -1.46277e+01 -2.75307e+01 -1.07016e+01
       O  2.10607e-01 -1.64451e+01 -7.57014e+00
       H -6.56716e-01 -1.65431e+01 -7.18784e+00
       H  2.87327e-02 -1.70910e+01 -8.26867e+00
       O -9.82223e+00 -2.73562e+01 -1.47442e+01
       H -9.95420e+00 -2.81499e+01 -1.52432e+01
       H -1.06823e+01 -2.69439e+01 -1.49715e+01
       O -1.49299e+01 -1.50372e+01 -2.14269e+01
       H -1.40901e+01 -1.46460e+01 -2.13183e+01
       H -1.46737e+01 -1.58000e+01 -2.19539e+01
       O -2.36891e+01 -2.77166e+00 -7.63413e+00
       H -2.28563e+01 -3.01971e+00 -7.20439e+00
       H -2.43346e+01 -2.98185e+00 -6.88070e+00
       O -9.51923e+00 -1.29798e+00 -5.41851e+00
       H -9.69087e+00 -1.59531e+00 -4.49791e+00
       H -9.04638e+00 -2.02514e+00 -5.80558e+00
       O -2.62619e+01  1.10092e+00 -1.12725e+01
       H -2.68359e+01  4.85510e-01 -1.16012e+01
       H -2.67996e+01  1.79226e+00 -1.08583e+01
       O -5.18678e+00 -1.14641e+00 -1.72744e+01
       H -5.45552e+00 -1.06411e+00 -1.62982e+01
       H -4.20110e+00 -1.14860e+00 -1.71774e+01
       O -2.14310e+01 -5.88739e+00 -1.48036e+00
       H -2.19307e+01 -6.33728e+00 -8.04970e-01
       H -2.15819e+01 -6.37027e+00 -2.28362e+00
       O -1.77642e+01 -1.96745e+01 -9.30245e-01
       H -1.75417e+01 -2.06184e+01 -1.08746e+00
       H -1.70552e+01 -1.91202e+01 -1.33480e+00
       O  3.15545e+00  7.79635e+00  3.43474e+00
       H  3.43943e+00  6.96357e+00  3.90638e+00
       H  3.90178e+00  7.79905e+00  2.86110e+00
       O -2.33995e+01 -1.45791e+01 -4.90569e+00
       H -2.31523e+01 -1.44544e+01 -3.91520e+00
       H -2.26065e+01 -1.43404e+01 -5.27164e+00
       O -4.69417e+00 -1.90117e+01 -2.89997e+01
       H -4.06511e+00 -1.83271e+01 -2.87439e+01
       H -5.06679e+00 -1.92006e+01 -2.81289e+01
       O -7.06663e-01 -8.53888e+00 -1.32063e+01
       H -9.78040e-01 -8.16906e+00 -1.41082e+01
       H -1.52004e+00 -8.32217e+00 -1.26604e+01
       O -6.66058e+00 -2.29826e+01 -1.60091e+00
       H -6.13565e+00 -2.37462e+01 -1.32340e+00
       H -6.41609e+00 -2.29651e+01 -2.50015e+00
       O -2.58742e+01 -1.50125e+01 -1.40614e+01
       H -2.51777e+01 -1.57044e+01 -1.42594e+01
       H -2.66899e+01 -1.54555e+01 -1.41088e+01
       O -1.37820e+01 -9.74517e+00 -2.31163e+01
       H -1.34981e+01 -8.86504e+00 -2.28989e+01
       H -1.33030e+01 -9.80541e+00 -2.39660e+01
       O -1.97679e+01 -1.61458e+01 -1.30811e+01
       H -1.93449e+01 -1.52636e+01 -1.31710e+01
       H -1.91744e+01 -1.66160e+01 -1.24021e+01
       O -1.23749e+01 -2.14581e+01 -1.63857e+01
       H -1.28736e+01 -2.17368e+01 -1.71310e+01
       H -1.15427e+01 -2.18775e+01 -1.66195e+01
       O -1.90915e+01  4.73019e+00 -2.22160e+01
       H -1.92382e+01  5.65625e+00 -2.24860e+01
       H -1.82128e+01  4.83871e+00 -2.17708e+01
       O  4.65729e+00 -2.13691e+01 -1.78016e+01
       H  5.12558e+00 -2.05331e+01 -1.80356e+01
       H  4.51773e+00 -2.13042e+01 -1.68423e+01
       O -9.82483e+00 -3.03258e+01 -7.29310e+00
       H -9.38723e+00 -3.09080e+01 -6.67564e+00
       H -9.09472e+00 -2.99351e+01 -7.83932e+00
       O -2.13761e+01 -1.11374e+01  5.41383e+00
       H -2.08381e+01 -1.11929e+01  6.25000e+00
       H -2.22601e+01 -1.11157e+01  5.82541e+00
       O -1.64896e+01 -2.30565e+01 -1.65191e+01
       H -1.65527e+01 -2.32734e+01 -1.74393e+01
       H -1.73803e+01 -2.32270e+01 -1.61707e+01
       O -3.83435e+00 -1.88877e+01 -2.36164e+01
       H -3.59650e+00 -1.95673e+01 -2.29816e+01
       H -3.91447e+00 -1.81563e+01 -2.29758e+01
       O -4.06134e+01 -2.50149e+01 -2.60152e+01
       H -4.02952e+01 -2.44851e+01 -2.67387e+01
       H -4.14197e+01 -2.44946e+01 -2.57474e+01
       O -3.96943e+01 -2.34109e+01 -1.44942e+01
       H -4.02071e+01 -2.42308e+01 -1.44082e+01
       H -3.90800e+01 -2.35909e+01 -1.53221e+01
       O -1.99977e-02 -5.68882e+00  9.17455e-01
       H -1.73066e-01 -4.85994e+00  1.43565e+00
       H  1.55912e-01 -5.18510e+00  1.14214e-01
       O -1.04651e+01 -1.85828e+01 -4.21203e+01
       H -1.02077e+01 -1.89893e+01 -4.29852e+01
       H -1.09297e+01 -1.93488e+01 -4.17420e+01
       O -5.23701e+00 -2.68991e+01 -2.77216e+01
       H -5.45867e+00 -2.59943e+01 -2.75726e+01
       H -4.49192e+00 -2.68408e+01 -2.70847e+01
       O -8.07912e+00 -1.26417e+01  1.69318e+00
       H -8.37485e+00 -1.27616e+01  2.55095e+00
       H -7.11481e+00 -1.25168e+01  1.84273e+00
       O -4.02330e+01 -9.93829e+00 -7.57104e+00
       H -3.98507e+01 -1.07352e+01 -7.13106e+00
       H -3.96333e+01 -9.89704e+00 -8.33997e+00
       O -2.28180e+01 -1.41280e+01 -2.35868e+00
       H -2.24145e+01 -1.49631e+01 -2.00368e+00
       H -2.29916e+01 -1.37520e+01 -1.49684e+00
       O -3.05011e+01  1.84814e+01 -1.00852e+01
       H -2.96114e+01  1.81364e+01 -1.00511e+01
       H -3.09326e+01  1.80722e+01 -9.28520e+00
       O  1.03796e+01  3.52567e-01  2.97862e+00
       H  1.01841e+01 -4.96874e-01  3.42297e+00
       H  9.78365e+00  3.04939e-01  2.20806e+00
       O -7.73347e+00 -1.22964e+00  1.58302e+00
       H -7.06450e+00 -1.92036e+00  1.91093e+00
       H -8.31844e+00 -1.78966e+00  9.78148e-01
       O -1.83394e+01 -1.77227e+01 -1.15567e+01
       H -1.84860e+01 -1.72948e+01 -1.06979e+01
       H -1.83844e+01 -1.87137e+01 -1.13542e+01
       O -4.55855e+01 -1.94947e+01  9.03305e+00
       H -4.51925e+01 -2.03957e+01  8.84682e+00
       H -4.60876e+01 -1.93534e+01  8.21722e+00
       O -1.75754e+01  9.46856e+00 -2.42454e+01
       H -1.72335e+01  9.36463e+00 -2.33806e+01
       H -1.68143e+01  9.28415e+00 -2.48183e+01
       O -1.23305e+01 -1.76268e+01 -2.47012e+01
       H -1.28184e+01 -1.67903e+01 -2.48928e+01
       H -1.17168e+01 -1.72683e+01 -2.39884e+01
       O -1.26994e+01 -1.59412e+01  2.55964e-01
       H -1.28815e+01 -1.67333e+01  8.07195e-01
       H -1.27528e+01 -1.62858e+01 -6.57627e-01
       O -1.14113e+01 -4.24912e+00 -2.49115e+01
       H -1.18611e+01 -4.50783e+00 -2.57321e+01
       H -1.09085e+01 -3.40592e+00 -2.51408e+01
       O -1.43699e+01 -1.19920e+01 -1.48508e+01
       H -1.46992e+01 -1.21025e+01 -1.39083e+01
       H -1.39491e+01 -1.28518e+01 -1.49710e+01
       O -1.22916e+01 -1.27490e+01  2.62251e+00
       H -1.14759e+01 -1.27995e+01  3.17134e+00
       H -1.19391e+01 -1.25420e+01  1.76633e+00
       O -2.78277e+01 -1.73293e+00 -2.20787e+01
       H -2.80920e+01 -9.51658e-01 -2.26750e+01
       H -2.71455e+01 -2.15740e+00 -2.26110e+01
       O -3.40998e+01 -2.08871e+01 -6.46026e+00
       H -3.32013e+01 -2.10312e+01 -6.84368e+00
       H -3.41499e+01 -1.99316e+01 -6.21189e+00
       O -1.74274e+01 -2.58826e+01 -1.46732e+01
       H -1.82173e+01 -2.53349e+01 -1.47653e+01
       H -1.72758e+01 -2.60973e+01 -1.56352e+01
       O -1.19817e+01 -1.69757e+01 -3.50935e+01
       H -1.22592e+01 -1.65323e+01 -3.42565e+01
       H -1.15811e+01 -1.62983e+01 -3.56967e+01
       O -1.44319e+01 -1.52851e+01 -7.14220e+00
       H -1.36588e+01 -1.57366e+01 -6.68841e+00
       H -1.39097e+01 -1.45626e+01 -7.57939e+00
       O -2.25633e+01 -2.75459e+01 -3.29959e+01
       H -2.16996e+01 -2.71846e+01 -3.28128e+01