6
# CELL(abcABC): 1000.00000  1000.00000  1000.00000    90.00000    90.00000    90.00000  Step:         574  Bead:       0 positions{angstrom}  cell{angstrom}
       C -7.72074e-01  2.92316e+00 -6.17167e-01
       H -1.27557e+00  3.51994e+00 -1.38646e+00
       H  2.16967e-01  3.33195e+00 -4.67113e-01
       H -6.63836e-01  1.81714e+00 -8.61305e-01
       O -1.45939e+00  3.04794e+00  5.73741e-01
       H -2.42230e+00  2.95807e+00  6.48195e-01
