14
# CELL(abcABC): 1000.00000  1000.00000  1000.00000    90.00000    90.00000    90.00000  Step:          89  Bead:       0 positions{angstrom}  cell{angstrom}
       C -6.76047e-01  6.43907e-01 -2.02591e-02
       C  4.37864e-01 -1.57724e-01  6.90245e-01
       C -1.88958e+00 -1.89534e-01 -3.59562e-01
       C -9.18624e-01  1.98883e+00  6.60595e-01
       H -1.48832e+00  1.80394e+00  1.58883e+00
       H -1.60466e+00  2.58418e+00  5.19015e-02
       H -2.14012e-02  2.56483e+00  8.32369e-01
       H -1.66572e+00 -1.01304e+00 -1.03592e+00
       H -2.70352e+00  3.55913e-01 -8.56430e-01
       H -2.41956e+00 -6.55416e-01  5.13168e-01
       H  1.50970e+00  3.32203e-01  6.75299e-01
       H  6.19427e-01 -1.15547e+00  2.28253e-01
       H  1.01182e-01 -3.13458e-01  1.71735e+00
       H -1.93995e-01  7.40732e-01 -9.88980e-01
