4
# CELL(abcABC): 1000.00000  1000.00000  1000.00000    90.00000    90.00000    90.00000  Step:           0  Bead:       0 positions{angstrom}  cell{angstrom}
       O -3.14775e+00  1.06797e+00  3.57220e-01
       H -4.01699e+00  9.90890e-01  7.24665e-01
       H -2.69179e+00  2.20101e-01  1.82900e-01
       H -2.71178e+00  1.90762e+00  1.07811e-01
4
# CELL(abcABC): 1000.00000  1000.00000  1000.00000    90.00000    90.00000    90.00000  Step:           1  Bead:       0 positions{angstrom}  cell{angstrom}
       O -3.14598e+00  1.06814e+00  3.56657e-01
       H -4.02805e+00  9.83721e-01  7.29325e-01
       H -2.69211e+00  2.19990e-01  1.84103e-01
       H -2.72848e+00  1.91222e+00  1.10878e-01
4
# CELL(abcABC): 1000.00000  1000.00000  1000.00000    90.00000    90.00000    90.00000  Step:           2  Bead:       0 positions{angstrom}  cell{angstrom}
       O -3.14426e+00  1.06802e+00  3.56118e-01
       H -4.04020e+00  9.76975e-01  7.34564e-01
       H -2.69161e+00  2.20964e-01  1.85344e-01
       H -2.74408e+00  1.91984e+00  1.12964e-01
4
# CELL(abcABC): 1000.00000  1000.00000  1000.00000    90.00000    90.00000    90.00000  Step:           3  Bead:       0 positions{angstrom}  cell{angstrom}
       O -3.14260e+00  1.06768e+00  3.55593e-01
       H -4.05099e+00  9.69394e-01  7.40936e-01
       H -2.69201e+00  2.24068e-01  1.87223e-01
       H -2.75935e+00  1.92980e+00  1.13035e-01
4
# CELL(abcABC): 1000.00000  1000.00000  1000.00000    90.00000    90.00000    90.00000  Step:           4  Bead:       0 positions{angstrom}  cell{angstrom}
       O -3.14115e+00  1.06716e+00  3.55294e-01
       H -4.05969e+00  9.61041e-01  7.44962e-01
       H -2.69207e+00  2.28546e-01  1.88585e-01
       H -2.77352e+00  1.94193e+00  1.12396e-01
4
# CELL(abcABC): 1000.00000  1000.00000  1000.00000    90.00000    90.00000    90.00000  Step:           5  Bead:       0 positions{angstrom}  cell{angstrom}
       O -3.13989e+00  1.06636e+00  3.55219e-01
       H -4.06579e+00  9.53166e-01  7.47015e-01
       H -2.69273e+00  2.34443e-01  1.90788e-01
       H -2.78682e+00  1.95652e+00  1.09334e-01
4
# CELL(abcABC): 1000.00000  1000.00000  1000.00000    90.00000    90.00000    90.00000  Step:           6  Bead:       0 positions{angstrom}  cell{angstrom}
       O -3.13885e+00  1.06558e+00  3.55388e-01
       H -4.06775e+00  9.46019e-01  7.46127e-01
       H -2.69350e+00  2.38277e-01  1.91689e-01
       H -2.80057e+00  1.97224e+00  1.06648e-01
4
# CELL(abcABC): 1000.00000  1000.00000  1000.00000    90.00000    90.00000    90.00000  Step:           7  Bead:       0 positions{angstrom}  cell{angstrom}
       O -3.13822e+00  1.06472e+00  3.55574e-01
       H -4.06396e+00  9.39318e-01  7.44448e-01
       H -2.69357e+00  2.40682e-01  1.92966e-01
       H -2.81435e+00  1.99016e+00  1.04088e-01
4
# CELL(abcABC): 1000.00000  1000.00000  1000.00000    90.00000    90.00000    90.00000  Step:           8  Bead:       0 positions{angstrom}  cell{angstrom}
       O -3.13801e+00  1.06398e+00  3.56004e-01
       H -4.05511e+00  9.32998e-01  7.40175e-01
       H -2.69148e+00  2.40642e-01  1.93118e-01
       H -2.82853e+00  2.00826e+00  1.01386e-01
4
# CELL(abcABC): 1000.00000  1000.00000  1000.00000    90.00000    90.00000    90.00000  Step:           9  Bead:       0 positions{angstrom}  cell{angstrom}
       O -3.13814e+00  1.06349e+00  3.56453e-01
       H -4.04289e+00  9.26054e-01  7.35456e-01
       H -2.68712e+00  2.39183e-01  1.93397e-01
       H -2.84311e+00  2.02442e+00  9.86967e-02
4
# CELL(abcABC): 1000.00000  1000.00000  1000.00000    90.00000    90.00000    90.00000  Step:          10  Bead:       0 positions{angstrom}  cell{angstrom}
       O -3.13847e+00  1.06313e+00  3.57120e-01
       H -4.02830e+00  9.19119e-01  7.28917e-01
       H -2.68148e+00  2.37149e-01  1.92546e-01
       H -2.85817e+00  2.03914e+00  9.54978e-02
4
# CELL(abcABC): 1000.00000  1000.00000  1000.00000    90.00000    90.00000    90.00000  Step:          11  Bead:       0 positions{angstrom}  cell{angstrom}
       O -3.13887e+00  1.06299e+00  3.57966e-01
       H -4.01272e+00  9.12705e-01  7.20694e-01
       H -2.67623e+00  2.34082e-01  1.90971e-01
       H -2.87264e+00  2.05088e+00  9.18620e-02
4
# CELL(abcABC): 1000.00000  1000.00000  1000.00000    90.00000    90.00000    90.00000  Step:          12  Bead:       0 positions{angstrom}  cell{angstrom}
       O -3.13934e+00  1.06312e+00  3.58862e-01
       H -3.99700e+00  9.05660e-01  7.12591e-01
       H -2.67052e+00  2.29672e-01  1.88175e-01
       H -2.88650e+00  2.06022e+00  8.85449e-02
4
# CELL(abcABC): 1000.00000  1000.00000  1000.00000    90.00000    90.00000    90.00000  Step:          13  Bead:       0 positions{angstrom}  cell{angstrom}
       O -3.13967e+00  1.06348e+00  3.59642e-01
       H -3.98453e+00  8.98441e-01  7.06127e-01
       H -2.66341e+00  2.25809e-01  1.85294e-01
       H -2.90081e+00  2.06565e+00  8.55076e-02
4
# CELL(abcABC): 1000.00000  1000.00000  1000.00000    90.00000    90.00000    90.00000  Step:          14  Bead:       0 positions{angstrom}  cell{angstrom}
       O -3.13973e+00  1.06400e+00  3.60224e-01
       H -3.97586e+00  8.89893e-01  7.02315e-01
       H -2.65610e+00  2.24062e-01  1.82442e-01
       H -2.91595e+00  2.06774e+00  8.29299e-02
4
# CELL(abcABC): 1000.00000  1000.00000  1000.00000    90.00000    90.00000    90.00000  Step:          15  Bead:       0 positions{angstrom}  cell{angstrom}
       O -3.13928e+00  1.06455e+00  3.60384e-01
       H -3.97554e+00  8.79587e-01  7.03469e-01
       H -2.65006e+00  2.25001e-01  1.79953e-01
       H -2.92937e+00  2.06831e+00  8.17251e-02
4
# CELL(abcABC): 1000.00000  1000.00000  1000.00000    90.00000    90.00000    90.00000  Step:          16  Bead:       0 positions{angstrom}  cell{angstrom}
       O -3.13847e+00  1.06514e+00  3.60338e-01
       H -3.98020e+00  8.67780e-01  7.07002e-01
       H -2.64501e+00  2.29528e-01  1.77748e-01
       H -2.94267e+00  2.06629e+00  8.11407e-02
4
# CELL(abcABC): 1000.00000  1000.00000  1000.00000    90.00000    90.00000    90.00000  Step:          17  Bead:       0 positions{angstrom}  cell{angstrom}
       O -3.13724e+00  1.06578e+00  3.60116e-01
       H -3.98884e+00  8.55627e-01  7.12960e-01
       H -2.64179e+00  2.37246e-01  1.74758e-01
       H -2.95673e+00  2.06052e+00  8.16950e-02
4
# CELL(abcABC): 1000.00000  1000.00000  1000.00000    90.00000    90.00000    90.00000  Step:          18  Bead:       0 positions{angstrom}  cell{angstrom}
       O -3.13579e+00  1.06635e+00  3.59787e-01
       H -4.00128e+00  8.43988e-01  7.20514e-01
       H -2.63803e+00  2.47121e-01  1.71718e-01
       H -2.97106e+00  2.05316e+00  8.23991e-02
4
# CELL(abcABC): 1000.00000  1000.00000  1000.00000    90.00000    90.00000    90.00000  Step:          19  Bead:       0 positions{angstrom}  cell{angstrom}
       O -3.13442e+00  1.06696e+00  3.59420e-01
       H -4.01379e+00  8.32484e-01  7.28986e-01
       H -2.63525e+00  2.57988e-01  1.67853e-01
       H -2.98312e+00  2.04415e+00  8.36105e-02
4
# CELL(abcABC): 1000.00000  1000.00000  1000.00000    90.00000    90.00000    90.00000  Step:          20  Bead:       0 positions{angstrom}  cell{angstrom}
       O -3.13319e+00  1.06757e+00  3.59178e-01
       H -4.02465e+00  8.22232e-01  7.35618e-01
       H -2.63318e+00  2.69780e-01  1.63854e-01
       H -2.99378e+00  2.03291e+00  8.48255e-02
4
# CELL(abcABC): 1000.00000  1000.00000  1000.00000    90.00000    90.00000    90.00000  Step:          21  Bead:       0 positions{angstrom}  cell{angstrom}
       O -3.13234e+00  1.06812e+00  3.59159e-01
       H -4.03280e+00  8.12711e-01  7.39893e-01
       H -2.62870e+00  2.82093e-01  1.60186e-01
       H -3.00359e+00  2.02145e+00  8.45260e-02
4
# CELL(abcABC): 1000.00000  1000.00000  1000.00000    90.00000    90.00000    90.00000  Step:          22  Bead:       0 positions{angstrom}  cell{angstrom}
       O -3.13198e+00  1.06850e+00  3.59457e-01
       H -4.03791e+00  8.03853e-01  7.43415e-01
       H -2.62070e+00  2.93846e-01  1.54074e-01
       H -3.01233e+00  2.01250e+00  8.23787e-02
4
# CELL(abcABC): 1000.00000  1000.00000  1000.00000    90.00000    90.00000    90.00000  Step:          23  Bead:       0 positions{angstrom}  cell{angstrom}
       O -3.13213e+00  1.06875e+00  3.60213e-01
       H -4.03802e+00  7.97263e-01  7.44349e-01
       H -2.61004e+00  3.04818e-01  1.47382e-01
       H -3.02043e+00  2.00407e+00  7.61324e-02
4
# CELL(abcABC): 1000.00000  1000.00000  1000.00000    90.00000    90.00000    90.00000  Step:          24  Bead:       0 positions{angstrom}  cell{angstrom}
       O -3.13281e+00  1.06877e+00  3.61267e-01
       H -4.03259e+00  7.91461e-01  7.43085e-01
       H -2.59713e+00  3.15411e-01  1.39952e-01
       H -3.02793e+00  1.99908e+00  6.81052e-02
4
# CELL(abcABC): 1000.00000  1000.00000  1000.00000    90.00000    90.00000    90.00000  Step:          25  Bead:       0 positions{angstrom}  cell{angstrom}
       O -3.13391e+00  1.06871e+00  3.62504e-01
       H -4.02264e+00  7.86327e-01  7.40654e-01
       H -2.58287e+00  3.23960e-01  1.31809e-01
       H -3.03467e+00  1.99657e+00  5.90363e-02
4
# CELL(abcABC): 1000.00000  1000.00000  1000.00000    90.00000    90.00000    90.00000  Step:          26  Bead:       0 positions{angstrom}  cell{angstrom}
       O -3.13537e+00  1.06858e+00  3.63947e-01
       H -4.00893e+00  7.81931e-01  7.35897e-01
       H -2.56704e+00  3.31179e-01  1.22787e-01
       H -3.04111e+00  1.99589e+00  4.99131e-02
4
# CELL(abcABC): 1000.00000  1000.00000  1000.00000    90.00000    90.00000    90.00000  Step:          27  Bead:       0 positions{angstrom}  cell{angstrom}
       O -3.13715e+00  1.06827e+00  3.65579e-01
       H -3.99294e+00  7.79430e-01  7.29405e-01
       H -2.55061e+00  3.37118e-01  1.13067e-01
       H -3.04520e+00  1.99732e+00  4.02135e-02
4
# CELL(abcABC): 1000.00000  1000.00000  1000.00000    90.00000    90.00000    90.00000  Step:          28  Bead:       0 positions{angstrom}  cell{angstrom}
       O -3.13894e+00  1.06783e+00  3.67223e-01
       H -3.97736e+00  7.75692e-01  7.22447e-01
       H -2.53385e+00  3.43470e-01  1.03639e-01
       H -3.04922e+00  2.00171e+00  3.05048e-02
4
# CELL(abcABC): 1000.00000  1000.00000  1000.00000    90.00000    90.00000    90.00000  Step:          29  Bead:       0 positions{angstrom}  cell{angstrom}
       O -3.14062e+00  1.06725e+00  3.68858e-01
       H -3.96239e+00  7.71806e-01  7.14559e-01
       H -2.51916e+00  3.50744e-01  9.46468e-02
       H -3.05222e+00  2.00755e+00  2.14355e-02
4
# CELL(abcABC): 1000.00000  1000.00000  1000.00000    90.00000    90.00000    90.00000  Step:          30  Bead:       0 positions{angstrom}  cell{angstrom}
       O -3.14198e+00  1.06651e+00  3.70332e-01
       H -3.95047e+00  7.67603e-01  7.08788e-01
       H -2.50654e+00  3.59419e-01  8.68479e-02
       H -3.05510e+00  2.01471e+00  1.16035e-02
4
# CELL(abcABC): 1000.00000  1000.00000  1000.00000    90.00000    90.00000    90.00000  Step:          31  Bead:       0 positions{angstrom}  cell{angstrom}
       O -3.14301e+00  1.06569e+00  3.71655e-01
       H -3.94220e+00  7.61470e-01  7.05305e-01
       H -2.49568e+00  3.70897e-01  7.94429e-02
       H -3.05790e+00  2.02240e+00  1.49811e-03
4
# CELL(abcABC): 1000.00000  1000.00000  1000.00000    90.00000    90.00000    90.00000  Step:          32  Bead:       0 positions{angstrom}  cell{angstrom}
       O -3.14345e+00  1.06507e+00  3.72526e-01
       H -3.94124e+00  7.50777e-01  7.05001e-01
       H -2.48692e+00  3.85303e-01  7.44266e-02
       H -3.06072e+00  2.02855e+00 -7.00850e-03
4
# CELL(abcABC): 1000.00000  1000.00000  1000.00000    90.00000    90.00000    90.00000  Step:          33  Bead:       0 positions{angstrom}  cell{angstrom}
       O -3.14331e+00  1.06475e+00  3.73008e-01
       H -3.94690e+00  7.36635e-01  7.08334e-01
       H -2.48038e+00  4.00047e-01  7.10973e-02
       H -3.06374e+00  2.03310e+00 -1.46642e-02
4
# CELL(abcABC): 1000.00000  1000.00000  1000.00000    90.00000    90.00000    90.00000  Step:          34  Bead:       0 positions{angstrom}  cell{angstrom}
       O -3.14260e+00  1.06466e+00  3.73348e-01
       H -3.95660e+00  7.20030e-01  7.13180e-01
       H -2.47799e+00  4.15108e-01  6.92133e-02
       H -3.06775e+00  2.03607e+00 -2.30262e-02
4
# CELL(abcABC): 1000.00000  1000.00000  1000.00000    90.00000    90.00000    90.00000  Step:          35  Bead:       0 positions{angstrom}  cell{angstrom}
       O -3.14164e+00  1.06475e+00  3.73526e-01
       H -3.96687e+00  7.01888e-01  7.17950e-01
       H -2.47857e+00  4.31156e-01  6.88597e-02
       H -3.07208e+00  2.03669e+00 -3.02649e-02
4
# CELL(abcABC): 1000.00000  1000.00000  1000.00000    90.00000    90.00000    90.00000  Step:          36  Bead:       0 positions{angstrom}  cell{angstrom}
       O -3.14063e+00  1.06499e+00  3.73645e-01
       H -3.97703e+00  6.83204e-01  7.21886e-01
       H -2.47981e+00  4.47572e-01  6.80993e-02
       H -3.07668e+00  2.03520e+00 -3.53226e-02
4
# CELL(abcABC): 1000.00000  1000.00000  1000.00000    90.00000    90.00000    90.00000  Step:          37  Bead:       0 positions{angstrom}  cell{angstrom}
       O -3.13979e+00  1.06552e+00  3.73657e-01
       H -3.98484e+00  6.65658e-01  7.26418e-01
       H -2.48023e+00  4.61390e-01  6.67696e-02
       H -3.08188e+00  2.03050e+00 -3.87163e-02
4
# CELL(abcABC): 1000.00000  1000.00000  1000.00000    90.00000    90.00000    90.00000  Step:          38  Bead:       0 positions{angstrom}  cell{angstrom}
       O -3.13904e+00  1.06628e+00  3.73905e-01
       H -3.99046e+00  6.48980e-01  7.27961e-01
       H -2.47925e+00  4.71235e-01  6.46455e-02
       H -3.08910e+00  2.02526e+00 -4.20695e-02
4
# CELL(abcABC): 1000.00000  1000.00000  1000.00000    90.00000    90.00000    90.00000  Step:          39  Bead:       0 positions{angstrom}  cell{angstrom}
       O -3.13882e+00  1.06737e+00  3.74166e-01
       H -3.99118e+00  6.33408e-01  7.27772e-01
       H -2.47588e+00  4.76554e-01  6.26552e-02
       H -3.09532e+00  2.01818e+00 -4.40346e-02
4
# CELL(abcABC): 1000.00000  1000.00000  1000.00000    90.00000    90.00000    90.00000  Step:          40  Bead:       0 positions{angstrom}  cell{angstrom}
       O -3.13903e+00  1.06857e+00  3.74374e-01
       H -3.98717e+00  6.20122e-01  7.26098e-01
       H -2.47013e+00  4.78695e-01  6.15630e-02
       H -3.10165e+00  2.01033e+00 -4.45732e-02
4
# CELL(abcABC): 1000.00000  1000.00000  1000.00000    90.00000    90.00000    90.00000  Step:          41  Bead:       0 positions{angstrom}  cell{angstrom}
       O -3.13962e+00  1.06981e+00  3.74653e-01
       H -3.97874e+00  6.09970e-01  7.21537e-01
       H -2.46197e+00  4.78337e-01  6.03012e-02
       H -3.10886e+00  2.00110e+00 -4.31783e-02
4
# CELL(abcABC): 1000.00000  1000.00000  1000.00000    90.00000    90.00000    90.00000  Step:          42  Bead:       0 positions{angstrom}  cell{angstrom}
       O -3.14063e+00  1.07117e+00  3.75085e-01
       H -3.96453e+00  6.00376e-01  7.14359e-01
       H -2.45241e+00  4.75927e-01  5.93250e-02
       H -3.11659e+00  1.99151e+00 -4.18801e-02
4
# CELL(abcABC): 1000.00000  1000.00000  1000.00000    90.00000    90.00000    90.00000  Step:          43  Bead:       0 positions{angstrom}  cell{angstrom}
       O -3.14182e+00  1.07237e+00  3.75599e-01
       H -3.94712e+00  5.93771e-01  7.04900e-01
       H -2.44247e+00  4.73743e-01  5.89765e-02
       H -3.12505e+00  1.98130e+00 -4.02332e-02
4
# CELL(abcABC): 1000.00000  1000.00000  1000.00000    90.00000    90.00000    90.00000  Step:          44  Bead:       0 positions{angstrom}  cell{angstrom}
       O -3.14304e+00  1.07343e+00  3.76144e-01
       H -3.92737e+00  5.88130e-01  6.93435e-01
       H -2.43305e+00  4.70975e-01  5.89750e-02
       H -3.13493e+00  1.97283e+00 -3.74291e-02
4
# CELL(abcABC): 1000.00000  1000.00000  1000.00000    90.00000    90.00000    90.00000  Step:          45  Bead:       0 positions{angstrom}  cell{angstrom}
       O -3.14405e+00  1.07431e+00  3.76739e-01
       H -3.90773e+00  5.83448e-01  6.80621e-01
       H -2.42433e+00  4.68274e-01  5.93311e-02
       H -3.14729e+00  1.96630e+00 -3.44081e-02
4
# CELL(abcABC): 1000.00000  1000.00000  1000.00000    90.00000    90.00000    90.00000  Step:          46  Bead:       0 positions{angstrom}  cell{angstrom}
       O -3.14482e+00  1.07498e+00  3.77311e-01
       H -3.88963e+00  5.79178e-01  6.67463e-01
       H -2.41774e+00  4.66172e-01  6.06265e-02
       H -3.15967e+00  1.96205e+00 -3.16207e-02
4
# CELL(abcABC): 1000.00000  1000.00000  1000.00000    90.00000    90.00000    90.00000  Step:          47  Bead:       0 positions{angstrom}  cell{angstrom}
       O -3.14515e+00  1.07531e+00  3.77910e-01
       H -3.87489e+00  5.73288e-01  6.55413e-01
       H -2.41345e+00  4.66297e-01  6.25840e-02
       H -3.17354e+00  1.96246e+00 -3.10371e-02
4
# CELL(abcABC): 1000.00000  1000.00000  1000.00000    90.00000    90.00000    90.00000  Step:          48  Bead:       0 positions{angstrom}  cell{angstrom}
       O -3.14492e+00  1.07556e+00  3.78366e-01
       H -3.86460e+00  5.63995e-01  6.45115e-01
       H -2.41174e+00  4.69330e-01  6.53049e-02
       H -3.18912e+00  1.96480e+00 -3.06988e-02
4
# CELL(abcABC): 1000.00000  1000.00000  1000.00000    90.00000    90.00000    90.00000  Step:          49  Bead:       0 positions{angstrom}  cell{angstrom}
       O -3.14417e+00  1.07567e+00  3.78562e-01
       H -3.85993e+00  5.51299e-01  6.37126e-01
       H -2.41121e+00  4.74433e-01  6.94788e-02
       H -3.20621e+00  1.97059e+00 -3.00020e-02
4
# CELL(abcABC): 1000.00000  1000.00000  1000.00000    90.00000    90.00000    90.00000  Step:          50  Bead:       0 positions{angstrom}  cell{angstrom}
       O -3.14273e+00  1.07575e+00  3.78721e-01
       H -3.86105e+00  5.35909e-01  6.30480e-01
       H -2.41438e+00  4.81000e-01  7.48031e-02
       H -3.22481e+00  1.97816e+00 -3.12065e-02
4
# CELL(abcABC): 1000.00000  1000.00000  1000.00000    90.00000    90.00000    90.00000  Step:          51  Bead:       0 positions{angstrom}  cell{angstrom}
       O -3.14090e+00  1.07574e+00  3.78794e-01
       H -3.86689e+00  5.18086e-01  6.24617e-01
       H -2.41908e+00  4.89618e-01  8.06196e-02
       H -3.24331e+00  1.98756e+00 -3.23124e-02
4
# CELL(abcABC): 1000.00000  1000.00000  1000.00000    90.00000    90.00000    90.00000  Step:          52  Bead:       0 positions{angstrom}  cell{angstrom}
       O -3.13884e+00  1.07576e+00  3.78929e-01
       H -3.87583e+00  4.99272e-01  6.19407e-01
       H -2.42425e+00  4.98729e-01  8.53988e-02
       H -3.26196e+00  1.99702e+00 -3.40277e-02
4
# CELL(abcABC): 1000.00000  1000.00000  1000.00000    90.00000    90.00000    90.00000  Step:          53  Bead:       0 positions{angstrom}  cell{angstrom}
       O -3.13678e+00  1.07569e+00  3.79037e-01
       H -3.88503e+00  4.81622e-01  6.13347e-01
       H -2.42876e+00  5.09525e-01  9.03549e-02
       H -3.28085e+00  2.00493e+00 -3.46332e-02
4
# CELL(abcABC): 1000.00000  1000.00000  1000.00000    90.00000    90.00000    90.00000  Step:          54  Bead:       0 positions{angstrom}  cell{angstrom}
       O -3.13490e+00  1.07568e+00  3.78932e-01
       H -3.89353e+00  4.64947e-01  6.08010e-01
       H -2.43139e+00  5.20384e-01  9.50742e-02
       H -3.29959e+00  2.01087e+00 -3.23431e-02
4
# CELL(abcABC): 1000.00000  1000.00000  1000.00000    90.00000    90.00000    90.00000  Step:          55  Bead:       0 positions{angstrom}  cell{angstrom}
       O -3.13344e+00  1.07569e+00  3.78876e-01
       H -3.90046e+00  4.51313e-01  6.02800e-01
       H -2.43037e+00  5.29825e-01  9.89579e-02
       H -3.31688e+00  2.01501e+00 -3.01360e-02
4
# CELL(abcABC): 1000.00000  1000.00000  1000.00000    90.00000    90.00000    90.00000  Step:          56  Bead:       0 positions{angstrom}  cell{angstrom}
       O -3.13256e+00  1.07566e+00  3.78924e-01
       H -3.90199e+00  4.41578e-01  5.97374e-01
       H -2.42512e+00  5.36900e-01  9.99270e-02
       H -3.33448e+00  2.01807e+00 -2.64463e-02
4
# CELL(abcABC): 1000.00000  1000.00000  1000.00000    90.00000    90.00000    90.00000  Step:          57  Bead:       0 positions{angstrom}  cell{angstrom}
       O -3.13226e+00  1.07560e+00  3.79029e-01
       H -3.89818e+00  4.36380e-01  5.91641e-01
       H -2.41641e+00  5.41352e-01  1.00033e-01
       H -3.35192e+00  2.01982e+00 -2.24742e-02
4
# CELL(abcABC): 1000.00000  1000.00000  1000.00000    90.00000    90.00000    90.00000  Step:          58  Bead:       0 positions{angstrom}  cell{angstrom}
       O -3.13259e+00  1.07557e+00  3.79222e-01
       H -3.88943e+00  4.34307e-01  5.85040e-01
       H -2.40321e+00  5.44006e-01  9.91579e-02
       H -3.36859e+00  2.01967e+00 -1.80715e-02
4
# CELL(abcABC): 1000.00000  1000.00000  1000.00000    90.00000    90.00000    90.00000  Step:          59  Bead:       0 positions{angstrom}  cell{angstrom}
       O -3.13347e+00  1.07547e+00  3.79352e-01
       H -3.87631e+00  4.35797e-01  5.78045e-01
       H -2.38659e+00  5.46183e-01  9.87562e-02
       H -3.38437e+00  2.01760e+00 -1.27286e-02
4
# CELL(abcABC): 1000.00000  1000.00000  1000.00000    90.00000    90.00000    90.00000  Step:          60  Bead:       0 positions{angstrom}  cell{angstrom}
       O -3.13475e+00  1.07538e+00  3.79532e-01
       H -3.86162e+00  4.39549e-01  5.70955e-01
       H -2.36736e+00  5.47755e-01  9.62593e-02
       H -3.39787e+00  2.01374e+00 -6.00733e-03
4
# CELL(abcABC): 1000.00000  1000.00000  1000.00000    90.00000    90.00000    90.00000  Step:          61  Bead:       0 positions{angstrom}  cell{angstrom}
       O -3.13634e+00  1.07528e+00  3.79693e-01
       H -3.84467e+00  4.44298e-01  5.63796e-01
       H -2.34665e+00  5.50152e-01  9.25835e-02
       H -3.41042e+00  2.00811e+00  2.27402e-03
4
# CELL(abcABC): 1000.00000  1000.00000  1000.00000    90.00000    90.00000    90.00000  Step:          62  Bead:       0 positions{angstrom}  cell{angstrom}
       O -3.13784e+00  1.07524e+00  3.79885e-01
       H -3.82870e+00  4.48294e-01  5.56805e-01
       H -2.32854e+00  5.54065e-01  8.90931e-02
       H -3.42059e+00  2.00079e+00  9.71093e-03
4
# CELL(abcABC): 1000.00000  1000.00000  1000.00000    90.00000    90.00000    90.00000  Step:          63  Bead:       0 positions{angstrom}  cell{angstrom}
       O -3.13910e+00  1.07510e+00  3.79779e-01
       H -3.81426e+00  4.51856e-01  5.51319e-01
       H -2.31351e+00  5.59876e-01  8.65485e-02
       H -3.43015e+00  1.99366e+00  1.94171e-02
4
# CELL(abcABC): 1000.00000  1000.00000  1000.00000    90.00000    90.00000    90.00000  Step:          64  Bead:       0 positions{angstrom}  cell{angstrom}
       O -3.14002e+00  1.07500e+00  3.79456e-01
       H -3.80203e+00  4.52859e-01  5.48254e-01
       H -2.30183e+00  5.68492e-01  8.54344e-02
       H -3.43938e+00  1.98573e+00  2.87221e-02
4
# CELL(abcABC): 1000.00000  1000.00000  1000.00000    90.00000    90.00000    90.00000  Step:          65  Bead:       0 positions{angstrom}  cell{angstrom}
       O -3.14046e+00  1.07490e+00  3.78962e-01
       H -3.79524e+00  4.50520e-01  5.45836e-01
       H -2.29375e+00  5.81561e-01  8.57116e-02
       H -3.44723e+00  1.97655e+00  3.87170e-02
4
# CELL(abcABC): 1000.00000  1000.00000  1000.00000    90.00000    90.00000    90.00000  Step:          66  Bead:       0 positions{angstrom}  cell{angstrom}
       O -3.14039e+00  1.07476e+00  3.78187e-01
       H -3.79366e+00  4.46398e-01  5.45912e-01
       H -2.28988e+00  5.96303e-01  8.78646e-02
       H -3.45384e+00  1.96810e+00  4.87852e-02
4
# CELL(abcABC): 1000.00000  1000.00000  1000.00000    90.00000    90.00000    90.00000  Step:          67  Bead:       0 positions{angstrom}  cell{angstrom}
       O -3.13974e+00  1.07473e+00  3.77246e-01
       H -3.79665e+00  4.37378e-01  5.46886e-01
       H -2.28958e+00  6.14016e-01  9.19823e-02
       H -3.46153e+00  1.95999e+00  5.86283e-02
4
# CELL(abcABC): 1000.00000  1000.00000  1000.00000    90.00000    90.00000    90.00000  Step:          68  Bead:       0 positions{angstrom}  cell{angstrom}
       O -3.13870e+00  1.07460e+00  3.76339e-01
       H -3.80268e+00  4.25058e-01  5.48930e-01
       H -2.29233e+00  6.34215e-01  9.56798e-02
       H -3.46921e+00  1.95408e+00  6.72807e-02
4
# CELL(abcABC): 1000.00000  1000.00000  1000.00000    90.00000    90.00000    90.00000  Step:          69  Bead:       0 positions{angstrom}  cell{angstrom}
       O -3.13735e+00  1.07448e+00  3.75204e-01
       H -3.81112e+00  4.09517e-01  5.53510e-01
       H -2.29802e+00  6.56248e-01  1.01039e-01
       H -3.47657e+00  1.94948e+00  7.53615e-02
4
# CELL(abcABC): 1000.00000  1000.00000  1000.00000    90.00000    90.00000    90.00000  Step:          70  Bead:       0 positions{angstrom}  cell{angstrom}
       O -3.13611e+00  1.07405e+00  3.74098e-01
       H -3.81930e+00  3.94464e-01  5.57542e-01
       H -2.30415e+00  6.79909e-01  1.06309e-01
       H -3.48193e+00  1.94768e+00  8.36144e-02
4
# CELL(abcABC): 1000.00000  1000.00000  1000.00000    90.00000    90.00000    90.00000  Step:          71  Bead:       0 positions{angstrom}  cell{angstrom}
       O -3.13500e+00  1.07349e+00  3.73155e-01
       H -3.82667e+00  3.79522e-01  5.60092e-01
       H -2.30942e+00  7.02907e-01  1.10694e-01
       H -3.48684e+00  1.94849e+00  9.16440e-02
4
# CELL(abcABC): 1000.00000  1000.00000  1000.00000    90.00000    90.00000    90.00000  Step:          72  Bead:       0 positions{angstrom}  cell{angstrom}
       O -3.13433e+00  1.07262e+00  3.72318e-01
       H -3.83086e+00  3.67127e-01  5.62430e-01
       H -2.31120e+00  7.24942e-01  1.14764e-01
       H -3.49155e+00  1.95267e+00  9.85317e-02
4
# CELL(abcABC): 1000.00000  1000.00000  1000.00000    90.00000    90.00000    90.00000  Step:          73  Bead:       0 positions{angstrom}  cell{angstrom}
       O -3.13418e+00  1.07160e+00  3.71741e-01
       H -3.83143e+00  3.57525e-01  5.63860e-01
       H -2.30808e+00  7.45445e-01  1.17337e-01
       H -3.49649e+00  1.95806e+00  1.03684e-01
4
# CELL(abcABC): 1000.00000  1000.00000  1000.00000    90.00000    90.00000    90.00000  Step:          74  Bead:       0 positions{angstrom}  cell{angstrom}
       O -3.13471e+00  1.07036e+00  3.71526e-01
       H -3.82744e+00  3.51250e-01  5.63069e-01
       H -2.29924e+00  7.63671e-01  1.17026e-01
       H -3.50085e+00  1.96577e+00  1.08191e-01
4
# CELL(abcABC): 1000.00000  1000.00000  1000.00000    90.00000    90.00000    90.00000  Step:          75  Bead:       0 positions{angstrom}  cell{angstrom}
       O -3.13573e+00  1.06904e+00  3.71497e-01
       H -3.81963e+00  3.47138e-01  5.60774e-01
       H -2.28565e+00  7.79039e-01  1.15913e-01
       H -3.50613e+00  1.97540e+00  1.12060e-01
4
# CELL(abcABC): 1000.00000  1000.00000  1000.00000    90.00000    90.00000    90.00000  Step:          76  Bead:       0 positions{angstrom}  cell{angstrom}
       O -3.13737e+00  1.06753e+00  3.71481e-01
       H -3.80695e+00  3.46047e-01  5.58691e-01
       H -2.26816e+00  7.92557e-01  1.13778e-01
       H -3.51017e+00  1.98697e+00  1.16531e-01
4
# CELL(abcABC): 1000.00000  1000.00000  1000.00000    90.00000    90.00000    90.00000  Step:          77  Bead:       0 positions{angstrom}  cell{angstrom}
       O -3.13932e+00  1.06598e+00  3.71496e-01
       H -3.79100e+00  3.47878e-01  5.55942e-01
       H -2.24907e+00  8.04986e-01  1.11786e-01
       H -3.51429e+00  1.99736e+00  1.21034e-01
4
# CELL(abcABC): 1000.00000  1000.00000  1000.00000    90.00000    90.00000    90.00000  Step:          78  Bead:       0 positions{angstrom}  cell{angstrom}
       O -3.14140e+00  1.06451e+00  3.71670e-01
       H -3.77398e+00  3.49892e-01  5.51881e-01
       H -2.22916e+00  8.17146e-01  1.09737e-01
       H -3.51821e+00  2.00650e+00  1.24390e-01
4
# CELL(abcABC): 1000.00000  1000.00000  1000.00000    90.00000    90.00000    90.00000  Step:          79  Bead:       0 positions{angstrom}  cell{angstrom}
       O -3.14352e+00  1.06332e+00  3.71737e-01
       H -3.75665e+00  3.51914e-01  5.49051e-01
       H -2.20992e+00  8.27939e-01  1.08291e-01
       H -3.52110e+00  2.01264e+00  1.27597e-01
4
# CELL(abcABC): 1000.00000  1000.00000  1000.00000    90.00000    90.00000    90.00000  Step:          80  Bead:       0 positions{angstrom}  cell{angstrom}
       O -3.14552e+00  1.06242e+00  3.71561e-01
       H -3.73934e+00  3.52224e-01  5.46568e-01
       H -2.19392e+00  8.38244e-01  1.09226e-01
       H -3.52266e+00  2.01627e+00  1.31949e-01
4
# CELL(abcABC): 1000.00000  1000.00000  1000.00000    90.00000    90.00000    90.00000  Step:          81  Bead:       0 positions{angstrom}  cell{angstrom}
       O -3.14721e+00  1.06175e+00  3.71261e-01
       H -3.72163e+00  3.50004e-01  5.44167e-01
       H -2.18337e+00  8.50392e-01  1.12048e-01
       H -3.52416e+00  2.01689e+00  1.36283e-01
4
# CELL(abcABC): 1000.00000  1000.00000  1000.00000    90.00000    90.00000    90.00000  Step:          82  Bead:       0 positions{angstrom}  cell{angstrom}
       O -3.14839e+00  1.06167e+00  3.70648e-01
       H -3.70604e+00  3.42538e-01  5.43557e-01
       H -2.17799e+00  8.61406e-01  1.16679e-01
       H -3.52637e+00  2.01461e+00  1.41989e-01
4
# CELL(abcABC): 1000.00000  1000.00000  1000.00000    90.00000    90.00000    90.00000  Step:          83  Bead:       0 positions{angstrom}  cell{angstrom}
       O -3.14905e+00  1.06200e+00  3.69811e-01
       H -3.69368e+00  3.30348e-01  5.44548e-01
       H -2.17835e+00  8.72910e-01  1.23197e-01
       H -3.52785e+00  2.01016e+00  1.47774e-01
4
# CELL(abcABC): 1000.00000  1000.00000  1000.00000    90.00000    90.00000    90.00000  Step:          84  Bead:       0 positions{angstrom}  cell{angstrom}
       O -3.14916e+00  1.06275e+00  3.68798e-01
       H -3.68329e+00  3.12689e-01  5.45622e-01
       H -2.18516e+00  8.84674e-01  1.31329e-01
       H -3.52976e+00  2.00414e+00  1.54644e-01
4
# CELL(abcABC): 1000.00000  1000.00000  1000.00000    90.00000    90.00000    90.00000  Step:          85  Bead:       0 positions{angstrom}  cell{angstrom}