6
# CELL(abcABC): 1000.00000  1000.00000  1000.00000    90.00000    90.00000    90.00000  Step:         500  Bead:       0 positions{angstrom}  cell{angstrom}
       C -7.55062e-01  2.61066e+00 -5.01584e-01
       H -9.26155e-01  3.05853e+00 -1.42724e+00
       H  2.83726e-01  2.60665e+00 -2.57759e-01
       H -1.09803e+00  1.57884e+00 -4.28608e-01
       O -1.49625e+00  3.37476e+00  4.20354e-01
       H -2.02180e+00  2.91917e+00  1.10441e+00
