6
# CELL(abcABC): 1000.00000  1000.00000  1000.00000    90.00000    90.00000    90.00000  Step:         447  Bead:       0 positions{angstrom}  cell{angstrom}
       C -9.67897e-01  2.28834e+00  1.19638e-01
       H -1.08411e-01  2.00942e+00 -4.74921e-01
       H -7.75384e-01  2.11573e+00  1.22445e+00
       H -1.74374e+00  1.57861e+00 -1.71032e-01
       O -1.26862e+00  3.65438e+00 -1.50616e-01
       H -2.21175e+00  3.86169e+00  7.29722e-02
