11135
# CELL(abcABC):   47.46614    47.46614    47.46614    90.00000    90.00000    90.00000  Step:       10000  Bead:       0 positions{angstrom}  cell{angstrom}
       C -6.83361e+00 -4.07430e+00  4.29568e+00
       H -6.74131e+00 -5.10971e+00  3.78290e+00
       H -7.84748e+00 -3.86347e+00  3.96976e+00
       H -6.74213e+00 -4.12061e+00  5.41059e+00
       C -5.82807e+00 -3.08672e+00  3.69545e+00
       O -4.67401e+00 -3.38307e+00  3.58680e+00
       N -6.28707e+00 -1.90025e+00  3.26623e+00
       H -7.24842e+00 -1.76030e+00  3.23930e+00
       C -5.38388e+00 -8.79689e-01  2.63992e+00
       H -4.74743e+00 -1.46045e+00  2.05152e+00
       C -6.13833e+00  8.87125e-03  1.75386e+00
       H -5.46491e+00  6.21115e-01  1.19423e+00
       H -6.80834e+00  7.27428e-01  2.29601e+00
       C -7.05688e+00 -7.54422e-01  8.42996e-01
       H -7.85108e+00 -1.04780e+00  1.42483e+00
       H -6.48794e+00 -1.60515e+00  4.47952e-01
       C -7.55636e+00  1.03485e-01 -2.86182e-01
       H -6.70893e+00  4.18999e-01 -9.05295e-01
       H -7.95436e+00  1.08555e+00  3.10336e-03
       C -8.56190e+00 -4.82762e-01 -1.28395e+00
       H -8.99536e+00  3.52638e-01 -1.90980e+00
       H -9.40172e+00 -8.77277e-01 -7.16202e-01
       N -7.98443e+00 -1.58880e+00 -2.08477e+00
       H -7.16515e+00 -1.25928e+00 -2.64300e+00
       H -8.70586e+00 -1.95815e+00 -2.76506e+00
       H -7.58060e+00 -2.37188e+00 -1.45782e+00
       C -4.55145e+00 -1.14831e-01  3.66361e+00
       O -5.01257e+00  6.02657e-01  4.55003e+00
       N -3.23160e+00 -2.49291e-01  3.52906e+00
       H -2.79383e+00 -7.06275e-01  2.78399e+00
       H -2.66554e+00  2.30301e-01  4.07036e+00
       O -1.34362e+01 -2.64042e+00 -2.72503e+01
       H -1.40954e+01 -2.24833e+00 -2.78419e+01
       H -1.27571e+01 -3.02374e+00 -2.78540e+01
       O -1.79329e+01 -6.17871e+00 -1.00553e+01
       H -1.81393e+01 -5.39141e+00 -9.46744e+00
       H -1.74172e+01 -6.74234e+00 -9.48347e+00
       O  1.48992e+01 -1.50234e+01 -3.84482e+00
       H  1.54808e+01 -1.51793e+01 -4.61818e+00
       H  1.50967e+01 -1.58796e+01 -3.37886e+00
       O -1.60470e+01 -1.21267e+01 -2.29358e+01
       H -1.58021e+01 -1.24536e+01 -2.20477e+01
       H -1.68875e+01 -1.16005e+01 -2.27570e+01
       O -1.20281e+01 -5.42229e+00 -1.30443e+01
       H -1.26655e+01 -6.21419e+00 -1.31702e+01
       H -1.16995e+01 -5.17415e+00 -1.39575e+01
       O  2.28699e+01 -1.96759e+01  1.98990e+01
       H  2.31806e+01 -1.87676e+01  1.97017e+01
       H  2.35914e+01 -2.02797e+01  1.95385e+01
       O -1.37819e+01 -9.05635e+00 -3.76775e+00
       H -1.41029e+01 -9.86119e+00 -4.21582e+00
       H -1.33157e+01 -8.68743e+00 -4.57936e+00
       O  2.18552e+01 -2.40786e+01 -1.48666e+01
       H  2.25114e+01 -2.35645e+01 -1.43493e+01
       H  2.23428e+01 -2.47499e+01 -1.53558e+01
       O -1.50746e+01 -2.20577e+01 -1.97471e+00
       H -1.43963e+01 -2.17433e+01 -2.53097e+00
       H -1.46525e+01 -2.28277e+01 -1.57197e+00
       O  1.27359e+01 -1.82201e+01 -1.06140e+01
       H  1.21716e+01 -1.79472e+01 -1.13888e+01
       H  1.23342e+01 -1.75594e+01 -1.00220e+01
       O -2.40632e+01 -1.11359e+01 -3.79072e+00
       H -2.36142e+01 -1.19816e+01 -3.96360e+00
       H -2.38866e+01 -1.06013e+01 -4.54915e+00
       O  5.21161e+00 -2.70105e+01 -5.83415e+00
       H  4.60265e+00 -2.62457e+01 -5.65905e+00
       H  4.62500e+00 -2.77154e+01 -6.21415e+00
       O  4.70624e+00  1.62315e+01 -1.01760e+01
       H  5.15861e+00  1.57731e+01 -9.47865e+00
       H  3.80374e+00  1.59772e+01 -1.00141e+01
       O -3.12508e+01 -1.20268e+01 -4.48402e+00
       H -3.06067e+01 -1.13663e+01 -4.86315e+00
       H -3.17288e+01 -1.21559e+01 -5.30093e+00
       O -5.67186e+00 -1.32279e+01 -2.43217e+01
       H -4.97421e+00 -1.34748e+01 -2.49408e+01
       H -5.11931e+00 -1.30947e+01 -2.34898e+01
       O -1.84926e+00 -1.05784e+01 -1.08783e+01
       H -1.57605e+00 -1.14787e+01 -1.11596e+01
       H -1.05434e+00 -1.00625e+01 -1.12090e+01
       O -1.32966e+01 -2.10133e+01 -3.88121e+00
       H -1.29819e+01 -2.11924e+01 -4.74629e+00
       H -1.24700e+01 -2.11111e+01 -3.31865e+00
       O  3.38542e+00 -1.66084e+01 -2.21121e+01
       H  4.18058e+00 -1.67390e+01 -2.15556e+01
       H  3.06798e+00 -1.58321e+01 -2.16670e+01
       O -8.19654e+00 -1.99943e+01 -1.00229e+01
       H -8.85188e+00 -1.98190e+01 -1.07477e+01
       H -8.51507e+00 -1.93581e+01 -9.38758e+00
       O -5.16001e+00  1.39969e+01 -3.13217e+00
       H -4.67497e+00  1.39667e+01 -2.27621e+00
       H -5.36131e+00  1.49631e+01 -3.34787e+00
       O -2.52444e+01 -5.73006e+00 -5.53271e+00
       H -2.57487e+01 -6.28332e+00 -4.88508e+00
       H -2.44396e+01 -5.51111e+00 -5.09922e+00
       O -2.61294e+01 -6.67353e+00 -1.24010e+01
       H -2.53766e+01 -7.29081e+00 -1.25567e+01
       H -2.63496e+01 -6.88593e+00 -1.15042e+01
       O  2.24279e+01 -1.98621e+01 -2.08781e+01
       H  2.25184e+01 -2.00230e+01 -1.99188e+01
       H  2.33298e+01 -1.94956e+01 -2.10899e+01
       O -1.75148e+01 -1.72290e+01 -1.53262e+01
       H -1.74786e+01 -1.69543e+01 -1.62513e+01
       H -1.84016e+01 -1.69818e+01 -1.50487e+01
       O -2.94724e+00 -2.41334e+01 -1.46673e+01
       H -2.65949e+00 -2.37270e+01 -1.55778e+01
       H -2.08482e+00 -2.43272e+01 -1.42409e+01
       O -1.52701e+01 -9.17454e+00  2.18609e+01
       H -1.48050e+01 -9.26331e+00  2.27034e+01
       H -1.48254e+01 -8.38547e+00  2.15045e+01
       O -6.75737e+00 -3.06375e+01 -1.92250e+01
       H -6.76670e+00 -3.11853e+01 -2.00294e+01
       H -5.75836e+00 -3.05970e+01 -1.90459e+01
       O -7.09739e+00 -5.18892e+00  1.76798e+01
       H -6.61353e+00 -4.87942e+00  1.84715e+01
       H -6.47510e+00 -5.81689e+00  1.72897e+01
       O -1.26161e+01 -8.64602e-01  1.17209e+00
       H -1.25528e+01 -1.66500e+00  6.45848e-01
       H -1.26193e+01 -2.05748e-01  4.76020e-01
       O -2.48396e+01 -1.11387e+01  2.55040e+01
       H -2.38909e+01 -1.13252e+01  2.52800e+01
       H -2.49476e+01 -1.02623e+01  2.50900e+01
       O -2.13440e+01 -1.67463e+01 -1.77297e+01
       H -2.11429e+01 -1.64328e+01 -1.85982e+01
       H -2.23556e+01 -1.69542e+01 -1.77239e+01
       O  4.42615e+00 -1.00628e+01 -2.18004e+01
       H  4.39652e+00 -1.02077e+01 -2.08521e+01
       H  5.37644e+00 -1.01050e+01 -2.19063e+01
       O  1.88589e+00 -7.13960e+00 -2.69827e+01
       H  1.80171e+00 -8.15367e+00 -2.68424e+01
       H  1.17976e+00 -6.81131e+00 -2.63661e+01
       O -8.81814e+00 -2.12265e+01  6.85567e+00
       H -8.03162e+00 -2.18821e+01  6.79447e+00
       H -9.25548e+00 -2.17497e+01  7.50425e+00
       O -1.33035e+01 -1.28473e+01 -1.32880e+01
       H -1.35299e+01 -1.18708e+01 -1.31058e+01
       H -1.39055e+01 -1.30776e+01 -1.39670e+01
       O -2.57427e+01 -2.11603e+01  2.20549e+01
       H -2.57424e+01 -2.21058e+01  2.19422e+01
       H -2.51966e+01 -2.08016e+01  2.13831e+01
       O -9.94068e+00 -2.60912e+01 -2.69868e+00
       H -1.03857e+01 -2.51725e+01 -2.73044e+00
       H -1.06178e+01 -2.64291e+01 -2.03838e+00
       O  4.70618e-01 -2.23708e+00 -2.61859e+01
       H  1.22822e+00 -1.67816e+00 -2.63026e+01
       H -2.12951e-01 -1.80466e+00 -2.67461e+01
       O -1.14895e+01  1.88840e+00 -1.25592e+01
       H -1.09679e+01  1.09893e+00 -1.28934e+01
       H -1.23599e+01  1.85205e+00 -1.29574e+01
       O  2.35163e+00 -2.31289e+01 -1.59957e+01
       H  3.01112e+00 -2.24776e+01 -1.62847e+01
       H  1.82067e+00 -2.31195e+01 -1.67983e+01
       O  1.71770e+01 -1.75520e+01 -8.83355e+00
       H  1.66874e+01 -1.82889e+01 -8.41434e+00
       H  1.66979e+01 -1.75728e+01 -9.68680e+00
       O -1.46561e+01 -1.89176e+00 -3.39616e+01
       H -1.43790e+01 -2.72206e+00  1.30461e+01
       H -1.49754e+01 -1.40000e+00 -3.47049e+01
       O  1.51754e+01 -2.00712e+01 -1.21351e+01
       H  1.50555e+01 -2.03221e+01 -1.30638e+01
       H  1.49973e+01 -2.08433e+01 -1.16268e+01
       O -1.72653e+01 -8.39002e+00 -2.26530e+01
       H -1.75488e+01 -8.10787e+00 -2.35444e+01
       H -1.63932e+01 -8.59215e+00 -2.29204e+01
       O -2.52552e+01 -1.97683e+01 -1.29429e+01
       H -2.48610e+01 -2.05143e+01 -1.23240e+01
       H -2.52821e+01 -1.90066e+01 -1.24044e+01
       O -5.66359e+00 -1.27835e+01  8.94932e+00
       H -5.22331e+00 -1.29695e+01  9.78098e+00
       H -6.05358e+00 -1.36778e+01  8.88420e+00
       O -1.21787e+01 -2.33259e+01  2.24530e+00
       H -1.12948e+01 -2.29135e+01  2.40382e+00
       H -1.25347e+01 -2.30511e+01  3.03958e+00
       O  1.02820e+01 -9.25517e+00 -1.08839e+01
       H  9.83044e+00 -8.37725e+00 -1.07060e+01
       H  1.09786e+01 -9.14051e+00 -1.01920e+01
       O  6.68507e+00 -7.37733e+00 -9.98185e+00
       H  5.87587e+00 -7.06689e+00 -1.03863e+01
       H  7.33685e+00 -6.94695e+00 -1.04596e+01
       O -2.37468e+01  1.06309e+00 -1.58164e+01
       H -2.40507e+01  1.93866e+00 -1.55595e+01
       H -2.46179e+01  6.80358e-01 -1.60181e+01
       O -1.63498e+01 -3.67421e+00 -2.60958e+01
       H -1.70228e+01 -4.06219e+00 -2.55608e+01
       H -1.63394e+01 -4.24613e+00 -2.69123e+01
       O -1.20660e+01 -1.02148e+01 -1.17925e+01
       H -1.14997e+01 -1.03112e+01 -1.26158e+01
       H -1.16665e+01 -9.47261e+00 -1.12800e+01
       O -1.22479e+01 -1.05662e+01 -2.50452e+01
       H -1.13399e+01 -1.09933e+01 -2.51091e+01
       H -1.21807e+01 -1.03877e+01 -2.41438e+01
       O -6.82245e+00 -4.32888e+00 -1.28289e+01
       H -7.41885e+00 -4.06876e+00 -1.21540e+01
       H -5.88790e+00 -4.18157e+00 -1.24597e+01
       O  4.70944e+00 -6.28718e+00 -1.14161e+01
       H  4.35742e+00 -6.28354e+00 -1.23512e+01
       H  3.98295e+00 -6.52273e+00 -1.09025e+01
       O -1.86164e+01 -1.64543e+01 -4.81138e-02
       H -1.96206e+01 -1.66617e+01 -2.73986e-02
       H -1.85105e+01 -1.59439e+01  7.27826e-01
       O -1.80807e+01 -4.76012e+00  1.51149e+00
       H -1.81073e+01 -4.07936e+00  8.29088e-01
       H -1.88665e+01 -4.57271e+00  2.01629e+00
       O -5.74694e+00 -1.80297e+01 -2.23581e+01
       H -6.46821e+00 -1.79222e+01 -2.29897e+01
       H -5.14029e+00 -1.85911e+01 -2.29073e+01
       O -5.01138e+00 -1.94396e+01 -1.17068e+01
       H -5.91989e+00 -1.91477e+01 -1.15678e+01
       H -5.11626e+00 -1.99709e+01 -1.25584e+01
       O -2.25411e-01  2.24236e+01  7.32323e+00
       H  2.55603e-01  2.28181e+01  6.57853e+00
       H -1.14110e+00  2.25507e+01  7.08630e+00
       O -6.71966e+00 -2.75787e+00 -2.36865e+01
       H -5.87455e+00 -3.26517e+00 -2.38990e+01
       H -6.75618e+00 -3.01070e+00 -2.27307e+01
       O -5.39865e+00  2.51708e+01  4.84440e+00
       H -5.29501e+00  2.44786e+01  4.12259e+00
       H -6.08131e+00  2.47959e+01  5.49932e+00
       O -1.17934e+01 -1.68486e+01 -1.25303e+01
       H -1.25593e+01 -1.63206e+01 -1.24657e+01
       H -1.21039e+01 -1.74159e+01 -1.32392e+01
       O  2.52654e+00 -1.47560e+01 -1.29630e+00
       H  2.32176e+00 -1.37963e+01 -1.40843e+00
       H  3.22392e+00 -1.48908e+01 -1.93340e+00
       O -6.33678e+00 -9.75815e+00  4.45076e+00
       H -6.86121e+00 -9.97831e+00  5.19805e+00
       H -6.00028e+00 -1.06733e+01  4.18960e+00
       O -1.53292e+01 -4.32992e-01  1.87126e+01
       H -1.51636e+01  1.93608e-01  1.93816e+01
       H -1.47893e+01 -8.13762e-02  1.79809e+01
       O -2.30186e+01 -1.24126e+01 -1.23890e+01
       H -2.29056e+01 -1.14496e+01 -1.20546e+01
       H -2.24899e+01 -1.28815e+01 -1.16920e+01
       O  4.25488e-01 -1.88506e+01 -8.78301e+00
       H  1.01751e+00 -1.81311e+01 -8.44536e+00
       H -5.29958e-02 -1.82917e+01 -9.40839e+00
       O -1.69651e+01 -2.20184e+01 -1.01329e+01
       H -1.69217e+01 -2.26736e+01 -9.36132e+00
       H -1.73101e+01 -2.11941e+01 -9.71486e+00
       O -2.87265e+01 -2.38217e+01  1.91326e+01
       H -2.92991e+01 -2.45305e+01  1.87656e+01
       H -2.79581e+01 -2.38690e+01  1.85055e+01
       O  2.17619e+01  2.35663e+01  2.21838e+01
       H  2.19990e+01  2.30641e+01  2.14174e+01
       H  2.08582e+01  2.31493e+01  2.22117e+01
       O -3.28268e+00 -1.71043e+01 -7.81518e+00
       H -3.69795e+00 -1.77440e+01 -8.41212e+00
       H -3.34448e+00 -1.63712e+01 -8.43623e+00
       O -1.35319e+01 -7.45631e+00 -1.37495e+01
       H -1.41498e+01 -7.94840e+00 -1.43194e+01
       H -1.38952e+01 -7.74071e+00 -1.29043e+01
       O -1.88604e+01 -4.79393e+00  7.72815e+00
       H -1.89039e+01 -3.91703e+00  8.16107e+00
       H -1.79171e+01 -4.73142e+00  7.50599e+00
       O -1.86347e+01 -2.05818e+01 -2.48670e+01
       H -1.78522e+01 -2.06775e+01 -2.43076e+01
       H -1.93922e+01 -2.09537e+01 -2.44745e+01
       O -1.97334e+01 -1.25432e+01 -2.38864e+01
       H -2.01487e+01 -1.25013e+01 -2.47627e+01
       H -2.02993e+01 -1.31730e+01 -2.33701e+01
       O -7.28658e+00 -1.40418e+01 -1.23944e+01
       H -6.98309e+00 -1.36395e+01 -1.31746e+01
       H -8.14650e+00 -1.44413e+01 -1.26261e+01
       O -1.48362e+01 -1.44053e+01 -1.52857e+01
       H -1.40044e+01 -1.46095e+01 -1.56211e+01
       H -1.51500e+01 -1.38410e+01 -1.60680e+01
       O -2.02244e+01 -1.63029e+01 -1.54122e+01
       H -2.04820e+01 -1.63577e+01 -1.63772e+01
       H -2.09930e+01 -1.66635e+01 -1.49051e+01
       O -1.29729e+01 -1.27814e+01 -7.26792e+00
       H -1.33342e+01 -1.36732e+01 -7.04145e+00
       H -1.32524e+01 -1.26781e+01 -8.15890e+00
       O -9.40979e+00 -1.48674e+01 -9.81529e+00
       H -8.86866e+00 -1.41153e+01 -9.46546e+00
       H -9.93739e+00 -1.52059e+01 -9.01797e+00
       O  1.56862e+01 -1.33751e+01 -1.40764e+01
       H  1.51614e+01 -1.25398e+01 -1.43148e+01
       H  1.50605e+01 -1.39878e+01 -1.45987e+01
       O -1.66132e+00 -2.32827e+01 -3.82995e+00
       H -1.69551e+00 -2.39667e+01 -4.45913e+00
       H -1.29833e+00 -2.25269e+01 -4.29021e+00
       O -2.17736e+01 -2.49746e+01  1.39961e+01
       H -2.18925e+01 -2.43570e+01  1.32193e+01
       H -2.27119e+01 -2.49247e+01  1.44022e+01
       O -1.02102e+01 -8.69133e+00 -3.94477e+00
       H -1.04924e+01 -9.54857e+00 -3.80674e+00
       H -1.06049e+01 -8.52353e+00 -4.82666e+00
       O -1.56463e+01 -1.43895e+00 -1.63015e+01
       H -1.62939e+01 -1.11660e+00 -1.56573e+01
       H -1.62633e+01 -1.34466e+00 -1.70557e+01
       O  2.61276e+01 -1.61268e+01 -3.89911e+00
       H  2.53408e+01 -1.60456e+01 -3.31374e+00
       H  2.64348e+01 -1.52284e+01 -3.71047e+00
       O  1.37214e+01 -1.35209e+01 -2.54922e+01
       H  1.28418e+01 -1.32337e+01 -2.51887e+01
       H  1.33374e+01 -1.42727e+01 -2.60485e+01
       O  5.93281e+00 -2.04064e+01 -1.59486e+00
       H  5.46702e+00 -2.01145e+01 -7.82877e-01
       H  5.26047e+00 -2.08276e+01 -2.17287e+00
       O -2.06250e+01 -1.57780e+01 -2.04372e+01
       H -2.07510e+01 -1.58963e+01 -2.13814e+01
       H -1.95919e+01 -1.56775e+01 -2.04004e+01
       O -8.03736e-01 -1.30795e+01 -1.15201e+01
       H  7.80653e-02 -1.34348e+01 -1.13211e+01
       H -1.08281e+00 -1.36380e+01 -1.22392e+01
       O  1.53447e+00 -8.29183e+00 -6.87524e+00
       H  1.23589e+00 -9.20508e+00 -6.58570e+00
       H  7.31431e-01 -7.77479e+00 -7.05088e+00
       O -8.99745e+00 -5.01008e+00  1.20690e+00
       H -8.39735e+00 -5.77954e+00  1.09512e+00
       H -9.08557e+00 -4.95328e+00  2.12514e+00
       O -1.51067e+01  1.14619e+01 -1.23884e+01
       H -1.60029e+01  1.15775e+01 -1.26191e+01
       H -1.53195e+01  1.13076e+01 -1.14139e+01
       O -1.23317e-01 -1.29362e+01 -2.19505e+01
       H -2.82929e-01 -1.27085e+01 -2.28820e+01
       H -9.44107e-01 -1.34150e+01 -2.19368e+01
       O -2.32790e+01 -1.05921e+01  2.21031e+01
       H -2.26386e+01 -1.01891e+01  2.14915e+01
       H -2.28201e+01 -1.05411e+01  2.29758e+01
       O  1.84640e+01 -1.63523e+01  3.41756e+01
       H  1.93806e+01 -1.59323e+01  3.40009e+01
       H  1.87160e+01 -1.72085e+01  3.44890e+01
       O -1.07204e+01 -1.03321e+01 -1.78561e+01
       H -1.10652e+01 -9.75066e+00 -1.71550e+01
       H -9.83373e+00 -1.06305e+01 -1.75261e+01
       O -1.69088e+01 -9.72607e+00 -2.03874e+01
       H -1.77744e+01 -9.99949e+00 -2.00363e+01
       H -1.70677e+01 -9.19533e+00 -2.11590e+01
       O -2.05260e+01 -8.78796e+00  2.53127e+01
       H -2.11872e+01 -8.20116e+00  2.55279e+01
       H -1.98459e+01 -8.56210e+00  2.59177e+01
       O -1.23150e+01 -1.52725e+01 -2.73291e+01
       H -1.32555e+01 -1.55375e+01 -2.72092e+01
       H -1.23110e+01 -1.42934e+01 -2.75394e+01
       O -1.14043e+01 -1.41327e+01 -2.37449e+01
       H -1.16010e+01 -1.36192e+01 -2.29911e+01
       H -1.11366e+01 -1.34754e+01 -2.43899e+01
       O -5.17012e+00  1.82336e+01 -8.50303e+00
       H -4.86196e+00  1.90242e+01 -8.94163e+00
       H -6.02492e+00  1.86053e+01 -8.16140e+00
       O -1.54186e+01  2.07851e+00 -1.20078e+01
       H -1.63050e+01  2.21626e+00 -1.17084e+01
       H -1.50144e+01  2.88926e+00 -1.16223e+01
       O -1.07020e+01 -1.30342e+01  1.33764e+00
       H -1.03608e+01 -1.27538e+01  2.20569e+00
       H -1.05671e+01 -1.23091e+01  7.19141e-01
       O -1.83283e+00 -1.66602e+01 -2.34944e+01
       H -1.02772e+00 -1.70966e+01 -2.38260e+01
       H -2.46584e+00 -1.67277e+01 -2.42494e+01
       O  1.29271e+01 -2.15243e+00 -1.40925e+01
       H  1.29155e+01 -2.03184e+00 -1.50359e+01
       H  1.19423e+01 -2.14038e+00 -1.38003e+01
       O -1.55770e+01 -1.53841e+00  2.27724e+01
       H -1.64856e+01 -1.25003e+00  2.24087e+01
       H -1.56517e+01 -2.46720e+00  2.25325e+01
       O  2.02928e+01 -2.00142e+01  1.85336e+01
       H  2.11465e+01 -2.00536e+01  1.90690e+01
       H  2.03425e+01 -1.90679e+01  1.83373e+01
       O -2.28795e+01 -1.19533e+01  1.47814e+01
       H -2.20974e+01 -1.19679e+01  1.42418e+01
       H -2.28247e+01 -1.12860e+01  1.54338e+01
       O -1.50213e+01  2.14423e+01 -7.00065e+00
       H -1.44568e+01  2.07737e+01 -6.57265e+00
       H -1.50094e+01  2.10456e+01 -7.90023e+00
       O -1.47244e+01 -1.07326e+01  1.94291e+01
       H -1.45987e+01 -1.01073e+01  1.86449e+01
       H -1.44825e+01 -1.01850e+01  2.01737e+01
       O  1.95995e+01 -1.73961e+01  1.11393e+01
       H  2.03335e+01 -1.74909e+01  1.05490e+01
       H  1.96548e+01 -1.64276e+01  1.13890e+01
       O  1.07261e+01 -2.40243e+01 -1.99800e+01
       H  1.08984e+01 -2.39559e+01 -2.09135e+01
       H  1.07840e+01 -2.30798e+01 -1.96110e+01
       O -1.13180e+01 -1.26664e+01 -3.23270e+00
       H -1.04846e+01 -1.25022e+01 -2.78437e+00
       H -1.19266e+01 -1.20822e+01 -2.76375e+00
       O  4.65233e+00 -1.57805e+01 -2.89610e+00
       H  5.37180e+00 -1.54055e+01 -3.31699e+00
       H  4.92038e+00 -1.67135e+01 -2.79918e+00
       O -7.86113e+00  2.00733e+01 -2.64641e+01
       H -7.34891e+00  1.99129e+01  2.18807e+01
       H -7.06431e+00  1.99333e+01  2.03571e+01
       O  1.46127e+01 -1.72829e+01  1.83386e+01
       H  1.42561e+01 -1.66930e+01 -2.98371e+01
       H  1.50135e+01 -1.79602e+01 -2.96382e+01
       O -5.02086e-01  1.57211e+01  3.85679e+00
       H -9.29150e-01  1.49012e+01  3.43213e+00
       H  5.17793e-04  1.60788e+01  3.06206e+00
       O -9.45348e+00  2.23426e+01  2.05709e+01
       H -1.01752e+01  2.20789e+01  2.11016e+01
       H -8.85554e+00  2.16097e+01  2.07748e+01
       O  2.45602e+01 -5.01740e+00  3.24588e+01
       H  2.46668e+01 -4.11815e+00  3.20624e+01
       H  2.54614e+01 -5.40006e+00  3.23143e+01
       O  1.99335e+01 -1.23716e+01 -1.35703e+01
       H  1.92505e+01 -1.17562e+01 -1.33097e+01
       H  2.07063e+01 -1.20941e+01 -1.30741e+01
       O -3.06178e-02 -1.18703e+01 -1.75834e+01
       H  1.27622e-01 -1.26533e+01 -1.70945e+01
       H  3.48813e-01 -1.20596e+01 -1.84444e+01
       O -1.31227e+01 -1.95833e+01 -1.00705e+01
       H -1.33308e+01  2.72935e+01 -1.07691e+01
       H -1.37362e+01 -1.88776e+01 -1.03145e+01
       O  2.73868e+01 -2.57321e+00  2.17263e+01
       H  2.65950e+01 -2.40608e+00  2.22911e+01
       H  2.70657e+01 -3.28324e+00  2.10754e+01
       O -2.46372e+01  5.90357e+00 -4.96303e+00
       H -2.50427e+01  6.13334e+00 -5.83156e+00
       H -2.54269e+01  6.04049e+00 -4.30465e+00
       O  1.83950e+01 -9.06089e+00 -1.57392e+01
       H  1.92779e+01 -9.04958e+00 -1.52821e+01
       H  1.79429e+01 -8.31825e+00 -1.52869e+01
       O -1.26732e+01 -1.56384e+01  2.55114e+01
       H -1.23620e+01 -1.50167e+01  2.62125e+01
       H -1.19803e+01 -1.56062e+01  2.48898e+01
       O -1.22620e+01 -1.02459e+01 -1.75568e+00
       H -1.30546e+01 -1.04851e+01 -1.16240e+00
       H -1.26703e+01 -9.63153e+00 -2.41132e+00
       O -5.91502e-03 -2.17856e+01 -1.49486e+01
       H -6.16972e-01 -2.18738e+01 -1.57310e+01
       H  5.80203e-01 -2.25372e+01 -1.50348e+01
       O -1.91123e+01 -6.51762e+00 -1.25272e+01
       H -1.83248e+01 -6.84293e+00 -1.29917e+01
       H -1.87751e+01 -6.21331e+00 -1.15994e+01
       O -1.88620e+01 -1.96919e+01  2.00277e+01
       H -1.96954e+01 -1.91711e+01  2.01662e+01
       H -1.86393e+01 -2.00226e+01  2.09190e+01
       O  2.24619e+00 -3.15100e+01 -2.08670e+00
       H  1.79425e+00 -3.18485e+01 -2.83796e+00
       H  1.60360e+00 -3.16360e+01 -1.36522e+00
       O -1.20134e+01 -1.03306e+01  1.60938e+01
       H -1.28119e+01 -1.00591e+01  1.65850e+01
       H -1.24186e+01 -1.06978e+01  1.52765e+01
       O  1.41705e+00 -3.79662e+00 -7.07172e+00
       H  5.93910e-01 -3.28123e+00 -7.04830e+00
       H  1.13650e+00 -4.53840e+00 -6.52813e+00
       O -1.23582e+01 -4.26531e+00 -1.65109e+01
       H -1.25863e+01 -3.87053e+00 -1.73391e+01
       H -1.32897e+01 -4.38085e+00 -1.62676e+01
       O  1.91697e+01 -1.98081e+01 -1.30058e+01
       H  1.95891e+01 -1.90086e+01 -1.26638e+01
       H  1.99149e+01 -2.03481e+01 -1.34117e+01
       O -1.21886e+01 -1.80319e+01 -6.40318e+00
       H -1.29291e+01 -1.84108e+01 -5.88137e+00
       H -1.27537e+01 -1.75012e+01 -6.97842e+00
       O -1.73876e+01 -1.72311e+01 -1.80076e+01
       H -1.79848e+01 -1.79837e+01 -1.81361e+01
       H -1.77400e+01 -1.66105e+01 -1.86401e+01
       O -4.32334e+00 -2.19527e+01 -2.11818e+01
       H -4.72979e+00 -2.10372e+01 -2.10016e+01
       H -3.63840e+00 -2.17457e+01 -2.18840e+01
       O  1.94761e+01 -1.81754e+01 -1.85831e+01
       H  1.89438e+01 -1.82480e+01 -1.77447e+01
       H  1.95498e+01 -1.91006e+01 -1.88409e+01
       O  1.87065e+01  2.32049e+01  9.66696e+00
       H  1.96094e+01  2.32101e+01  1.00502e+01
       H  1.86022e+01  2.41072e+01  9.32723e+00
       O -9.14324e+00 -3.16316e+00 -9.84221e+00
       H -9.71346e+00 -2.59578e+00 -9.29322e+00
       H -8.89343e+00 -2.64218e+00 -1.06077e+01
       O -3.51053e-01 -3.28752e+01 -7.06030e+00
       H -6.08513e-01  1.47160e+01 -8.01284e+00
       H -8.16789e-01 -3.36177e+01 -6.70559e+00
       O -1.06413e+00 -1.61766e+01 -1.85315e+01
       H -1.58666e+00 -1.67925e+01 -1.90738e+01
       H -1.68074e+00 -1.55109e+01 -1.82499e+01
       O -2.12427e+01 -3.02453e+01  9.94958e+00
       H -2.05154e+01 -3.08560e+01  1.02406e+01
       H -2.15262e+01 -3.01155e+01  1.08856e+01
       O -3.90281e+00  8.40059e+00 -5.89802e+00
       H -4.23511e+00  7.80948e+00 -5.22364e+00
       H -3.73040e+00  7.80257e+00 -6.63389e+00
       O -2.29047e+01 -9.52667e+00 -5.87776e+00
       H -2.29608e+01 -8.58177e+00 -5.62569e+00
       H -2.22842e+01 -9.50651e+00 -6.65003e+00
       O  2.64646e+01 -1.19629e+01  1.30016e+01
       H  2.71213e+01 -1.26628e+01  1.29963e+01
       H  2.68861e+01 -1.13564e+01  1.23423e+01
       O -9.09116e+00 -1.96912e+01  2.76179e+00
       H -9.95253e+00 -1.95094e+01  2.36177e+00
       H -8.48832e+00 -1.95921e+01  1.98894e+00
       O  1.24513e+01 -1.87591e+01 -7.23237e+00
       H  1.26005e+01 -1.95799e+01 -6.81843e+00
       H  1.20897e+01  2.83937e+01 -8.08586e+00
       O -1.23715e+01  1.89177e+01  2.55508e+00
       H -1.25442e+01  1.98615e+01  2.93077e+00
       H -1.22013e+01  1.84259e+01  3.31292e+00
       O -4.35331e+00 -1.07374e+01 -2.43472e+01
       H -4.68560e+00 -1.12842e+01 -2.50896e+01
       H -5.21406e+00 -1.07448e+01 -2.38487e+01
       O  2.46043e+01 -1.65018e+01  2.49949e+01
       H  2.38658e+01 -1.63930e+01  2.43318e+01
       H  2.47327e+01 -1.74970e+01  2.49041e+01
       O  1.51145e+01  2.82795e+00 -1.83032e+00
       H  1.49060e+01  2.33660e+00 -9.72503e-01
       H  1.56325e+01  2.19403e+00 -2.33601e+00
       O  1.15891e+01 -1.21477e+01 -2.42853e+01
       H  1.06424e+01 -1.22263e+01 -2.39803e+01
       H  1.19912e+01 -1.20210e+01 -2.33546e+01
       O -1.23568e+01  2.60264e+01 -6.21211e+00
       H -1.18690e+01  2.52251e+01 -6.28369e+00
       H -1.19530e+01  2.64949e+01 -6.90477e+00
       O -7.55000e+00 -2.10399e+01 -1.65227e+01
       H -8.11700e+00 -2.18088e+01 -1.67912e+01
       H -7.82055e+00 -2.03785e+01 -1.72018e+01
       O -7.81298e-01 -5.43607e+00 -1.60742e+01
       H -3.31320e-01 -5.20968e+00 -1.52136e+01
       H -8.25037e-01 -4.49431e+00 -1.63619e+01
       O -6.78417e+00 -9.15769e+00  1.53682e+01
       H -7.64580e+00 -9.62793e+00  1.55848e+01
       H -6.49025e+00 -9.66774e+00  1.45647e+01
       O -7.28616e+00 -1.80740e+01 -2.45678e+01
       H -7.07583e+00 -1.88861e+01 -2.50065e+01
       H -8.03865e+00 -1.77970e+01 -2.51196e+01
       O  8.62828e+00 -2.11969e+00 -2.84935e+01
       H  8.27767e+00 -1.17350e+00 -2.83650e+01
       H  7.92113e+00 -2.74062e+00 -2.80751e+01
       O -1.06898e+01 -7.50547e+00  2.15476e+01
       H -1.10899e+01 -7.90766e+00  2.07837e+01
       H -1.14326e+01 -7.64370e+00  2.21467e+01
       O -9.42027e+00 -1.21423e+01 -8.92992e+00
       H -1.01858e+01 -1.23730e+01 -9.51049e+00
       H -9.91790e+00 -1.19107e+01 -8.13639e+00
       O -2.27476e+01 -5.17353e+00  2.29721e+01
       H -2.31058e+01 -5.51935e+00  2.21812e+01
       H -2.29903e+01 -5.77869e+00  2.36986e+01
       O  6.63155e+00 -7.99117e+00 -7.37915e+00
       H  5.65070e+00 -7.95624e+00 -7.37756e+00
       H  6.87546e+00 -7.74879e+00 -8.30530e+00
       O -7.04527e+00  2.42993e-02 -8.85356e+00
       H -6.53797e+00 -6.28966e-01 -9.39466e+00
       H -6.67963e+00  8.37931e-01 -9.27625e+00
       O -7.32612e+00  5.68061e-01 -2.75744e+01
       H -8.29312e+00  8.26957e-01 -2.74079e+01
       H -7.25322e+00 -1.62229e-01 -2.69150e+01
       O -4.69954e+00 -1.92509e+01 -8.88226e+00
       H -4.79537e+00 -1.94206e+01 -9.85308e+00
       H -5.50188e+00 -1.86266e+01 -8.66549e+00
       O  1.66112e-02 -1.53817e+01 -2.59041e+01
       H  1.84572e-01 -1.62580e+01 -2.53868e+01
       H -4.81455e-01 -1.48041e+01 -2.53174e+01
       O -3.95194e+00 -9.27386e+00 -1.21217e+01
       H -3.19706e+00 -9.88223e+00 -1.18377e+01
       H -3.54972e+00 -8.42347e+00 -1.20076e+01
       O -7.12084e+00  2.47660e+01 -7.47588e+00
       H -6.64315e+00  2.43505e+01 -8.15684e+00
       H -7.95706e+00  2.48369e+01 -7.91275e+00
       O -1.65981e+00 -2.22819e+01 -7.78711e+00
       H -1.43448e+00 -2.13745e+01 -7.47134e+00
       H -2.66737e+00 -2.23343e+01 -7.73057e+00
       O -1.74560e+00  9.59119e+00 -1.04493e+01
       H -1.74716e+00  1.01765e+01 -9.60264e+00
       H -2.47564e+00  1.01062e+01 -1.08714e+01
       O -9.53340e+00 -1.63657e+01 -2.17770e+01
       H -9.10850e+00 -1.56461e+01 -2.22899e+01
       H -9.49632e+00 -1.70235e+01 -2.25132e+01
       O -2.15068e+01 -1.71580e+01 -9.60852e+00
       H -2.19752e+01 -1.70975e+01 -8.76681e+00
       H -2.07738e+01 -1.65173e+01 -9.52223e+00
       O -1.86699e+01 -2.14244e+01 -2.08041e+01
       H -1.82636e+01 -2.20381e+01 -2.01936e+01
       H -1.78574e+01 -2.11081e+01 -2.13313e+01
       O  1.26665e+01  2.23448e+01 -9.79415e+00
       H  1.28732e+01  2.30311e+01 -9.16480e+00
       H  1.21617e+01  2.16905e+01 -9.28929e+00
       O -9.65637e+00  2.45666e+01 -1.78735e+01
       H -1.05930e+01  2.46004e+01 -1.75197e+01
       H -9.40065e+00  2.36152e+01 -1.77398e+01
       O  1.88466e+01 -2.02222e+01  1.59435e+01
       H  1.90876e+01 -2.01537e+01  1.68828e+01
       H  1.92813e+01 -1.94229e+01  1.56082e+01
       O -6.41673e+00 -1.04798e+01 -1.96241e+01
       H -6.80503e+00 -1.13407e+01 -1.94495e+01
       H -6.01069e+00 -1.03049e+01 -1.87306e+01
       O  1.85438e+01  2.85369e+01 -5.79172e+00
       H  1.87244e+01  2.76361e+01 -6.13311e+00
       H  1.94079e+01  2.88578e+01 -5.72362e+00
       O -2.25224e+01 -6.13792e+00 -9.83161e+00
       H -2.22591e+01 -5.82083e+00 -1.06943e+01
       H -2.19406e+01 -5.60204e+00 -9.27049e+00
       O -2.95000e+01 -3.53594e+00 -3.35282e+00
       H -2.93813e+01 -2.64335e+00 -2.95247e+00
       H -3.03375e+01 -3.73380e+00 -2.93230e+00
       O -6.34095e+00 -7.86307e+00 -1.04829e+01
       H -7.08534e+00 -8.35205e+00 -1.01146e+01
       H -5.64457e+00 -8.47563e+00 -1.07055e+01
       O -1.05158e+01  9.20442e+00  1.55917e+01
       H -9.56918e+00  8.98592e+00  1.55244e+01
       H -1.07185e+01  9.16174e+00  1.65655e+01
       O  3.58417e+00  2.27969e+01 -5.96767e+00
       H  3.21836e+00 -2.37869e+01 -6.11408e+00
       H  3.10572e+00  2.25896e+01 -5.10932e+00
       O -2.14407e+01 -1.36242e+01 -1.03059e+01
       H -2.10891e+01 -1.43049e+01 -9.73657e+00
       H -2.06430e+01 -1.32307e+01 -1.06672e+01
       O -1.72737e+01  1.40942e+01 -1.46644e+01
       H -1.79707e+01  1.47176e+01 -1.44026e+01
       H -1.67849e+01  1.46547e+01 -1.53011e+01
       O -1.74565e+01 -1.10579e+01 -4.65018e+00
       H -1.77775e+01 -1.03583e+01 -4.11025e+00
       H -1.68392e+01 -1.14586e+01 -4.03786e+00
       O -3.55324e+00 -4.05437e+00 -1.46700e+01
       H -3.83021e+00 -4.22696e+00 -1.55811e+01
       H -3.16441e+00 -3.14853e+00 -1.48272e+01
       O -5.96125e+00 -1.46711e+01 -2.13105e+01
       H -5.31518e+00 -1.39877e+01 -2.16623e+01
       H -5.32261e+00 -1.51427e+01 -2.07004e+01
       O -2.47781e+00 -2.01609e+01 -1.57953e+01
       H -2.72737e+00 -2.07185e+01 -1.50843e+01
       H -3.08381e+00 -2.03804e+01 -1.64620e+01
       O  2.06282e+01 -1.51113e+01 -7.65206e+00
       H  2.03650e+01 -1.57007e+01 -8.31756e+00
       H  2.13935e+01 -1.45847e+01 -7.96100e+00
       O -1.16043e+01 -9.64041e+00 -2.23922e+01
       H -1.06584e+01 -9.32992e+00 -2.25559e+01
       H -1.13692e+01 -1.04588e+01 -2.20267e+01
       O -2.43395e+01 -1.30081e+01 -1.45200e+01
       H -2.37212e+01 -1.26535e+01 -1.38507e+01
       H -2.44081e+01 -1.22815e+01 -1.52062e+01
       O -2.39075e+00 -1.06530e+01 -7.76727e+00
       H -2.34257e+00 -1.01044e+01 -8.60237e+00