4
# CELL(abcABC): 1000.00000  1000.00000  1000.00000    90.00000    90.00000    90.00000  Step:           0  Bead:       0 positions{angstrom}  cell{angstrom}
       O -3.14499e+00  1.06672e+00  3.54783e-01
       H -3.88821e+00  1.24013e+00  8.72020e-01
       H -3.02798e+00  1.02408e-01  2.31872e-01
       H -2.54815e+00  1.79577e+00 -4.98297e-02
4
# CELL(abcABC): 1000.00000  1000.00000  1000.00000    90.00000    90.00000    90.00000  Step:           1  Bead:       0 positions{angstrom}  cell{angstrom}
       O -3.14315e+00  1.06689e+00  3.54139e-01
       H -3.90064e+00  1.23377e+00  8.77994e-01
       H -3.02773e+00  1.02671e-01  2.32885e-01
       H -2.56511e+00  1.79913e+00 -4.65897e-02
4
# CELL(abcABC): 1000.00000  1000.00000  1000.00000    90.00000    90.00000    90.00000  Step:           2  Bead:       0 positions{angstrom}  cell{angstrom}
       O -3.14124e+00  1.06682e+00  3.53397e-01
       H -3.91688e+00  1.22888e+00  8.86631e-01
       H -3.02560e+00  1.04744e-01  2.33532e-01
       H -2.58138e+00  1.80308e+00 -4.41082e-02
4
# CELL(abcABC): 1000.00000  1000.00000  1000.00000    90.00000    90.00000    90.00000  Step:           3  Bead:       0 positions{angstrom}  cell{angstrom}
       O -3.13929e+00  1.06659e+00  3.52618e-01
       H -3.93395e+00  1.22357e+00  8.97647e-01
       H -3.02335e+00  1.09539e-01  2.34396e-01
       H -2.59747e+00  1.80728e+00 -4.36106e-02
4
# CELL(abcABC): 1000.00000  1000.00000  1000.00000    90.00000    90.00000    90.00000  Step:           4  Bead:       0 positions{angstrom}  cell{angstrom}
       O -3.13754e+00  1.06626e+00  3.52081e-01
       H -3.95040e+00  1.21736e+00  9.06676e-01
       H -3.01995e+00  1.16095e-01  2.34315e-01
       H -2.61230e+00  1.81211e+00 -4.40318e-02
4
# CELL(abcABC): 1000.00000  1000.00000  1000.00000    90.00000    90.00000    90.00000  Step:           5  Bead:       0 positions{angstrom}  cell{angstrom}
       O -3.13598e+00  1.06574e+00  3.51847e-01
       H -3.96505e+00  1.21108e+00  9.13354e-01
       H -3.01655e+00  1.24169e-01  2.34652e-01
       H -2.62578e+00  1.81859e+00 -4.73382e-02
4
# CELL(abcABC): 1000.00000  1000.00000  1000.00000    90.00000    90.00000    90.00000  Step:           6  Bead:       0 positions{angstrom}  cell{angstrom}
       O -3.13470e+00  1.06530e+00  3.51986e-01
       H -3.97576e+00  1.20472e+00  9.16131e-01
       H -3.01299e+00  1.29963e-01  2.33284e-01
       H -2.63895e+00  1.82620e+00 -5.09546e-02
4
# CELL(abcABC): 1000.00000  1000.00000  1000.00000    90.00000    90.00000    90.00000  Step:           7  Bead:       0 positions{angstrom}  cell{angstrom}
       O -3.13391e+00  1.06482e+00  3.52307e-01
       H -3.98037e+00  1.19787e+00  9.16756e-01
       H -3.00871e+00  1.33892e-01  2.31920e-01
       H -2.65121e+00  1.83678e+00 -5.53137e-02
4
# CELL(abcABC): 1000.00000  1000.00000  1000.00000    90.00000    90.00000    90.00000  Step:           8  Bead:       0 positions{angstrom}  cell{angstrom}
       O -3.13365e+00  1.06445e+00  3.53057e-01
       H -3.97904e+00  1.19050e+00  9.13160e-01
       H -3.00244e+00  1.34788e-01  2.29091e-01
       H -2.66283e+00  1.84901e+00 -6.07892e-02
4
# CELL(abcABC): 1000.00000  1000.00000  1000.00000    90.00000    90.00000    90.00000  Step:           9  Bead:       0 positions{angstrom}  cell{angstrom}
       O -3.13386e+00  1.06431e+00  3.54017e-01
       H -3.97295e+00  1.18176e+00  9.07377e-01
       H -2.99413e+00  1.33615e-01  2.26079e-01
       H -2.67387e+00  1.86124e+00 -6.72422e-02
4
# CELL(abcABC): 1000.00000  1000.00000  1000.00000    90.00000    90.00000    90.00000  Step:          10  Bead:       0 positions{angstrom}  cell{angstrom}
       O -3.13443e+00  1.06421e+00  3.55381e-01
       H -3.96267e+00  1.17256e+00  8.98053e-01
       H -2.98469e+00  1.31210e-01  2.21655e-01
       H -2.68455e+00  1.87430e+00 -7.51338e-02
4
# CELL(abcABC): 1000.00000  1000.00000  1000.00000    90.00000    90.00000    90.00000  Step:          11  Bead:       0 positions{angstrom}  cell{angstrom}
       O -3.13525e+00  1.06424e+00  3.57084e-01
       H -3.94928e+00  1.16383e+00  8.85531e-01
       H -2.97570e+00  1.27179e-01  2.16268e-01
       H -2.69398e+00  1.88673e+00 -8.42554e-02
4
# CELL(abcABC): 1000.00000  1000.00000  1000.00000    90.00000    90.00000    90.00000  Step:          12  Bead:       0 positions{angstrom}  cell{angstrom}
       O -3.13631e+00  1.06438e+00  3.58950e-01
       H -3.93355e+00  1.15494e+00  8.72066e-01
       H -2.96619e+00  1.21404e-01  2.09503e-01
       H -2.70242e+00  1.89907e+00 -9.36571e-02
4
# CELL(abcABC): 1000.00000  1000.00000  1000.00000    90.00000    90.00000    90.00000  Step:          13  Bead:       0 positions{angstrom}  cell{angstrom}
       O -3.13736e+00  1.06456e+00  3.60748e-01
       H -3.91917e+00  1.14698e+00  8.59914e-01
       H -2.95509e+00  1.16029e-01  2.02600e-01
       H -2.71120e+00  1.90960e+00 -1.03141e-01
4
# CELL(abcABC): 1000.00000  1000.00000  1000.00000    90.00000    90.00000    90.00000  Step:          14  Bead:       0 positions{angstrom}  cell{angstrom}
       O -3.13821e+00  1.06467e+00  3.62311e-01
       H -3.90752e+00  1.13937e+00  8.51051e-01
       H -2.94351e+00  1.12829e-01  1.95793e-01
       H -2.72095e+00  1.91860e+00 -1.12278e-01
4
# CELL(abcABC): 1000.00000  1000.00000  1000.00000    90.00000    90.00000    90.00000  Step:          15  Bead:       0 positions{angstrom}  cell{angstrom}
       O -3.13855e+00  1.06459e+00  3.63325e-01
       H -3.90436e+00  1.13205e+00  8.48836e-01
       H -2.93287e+00  1.12507e-01  1.89545e-01
       H -2.72938e+00  1.92753e+00 -1.19907e-01
4
# CELL(abcABC): 1000.00000  1000.00000  1000.00000    90.00000    90.00000    90.00000  Step:          16  Bead:       0 positions{angstrom}  cell{angstrom}
       O -3.13841e+00  1.06434e+00  3.63939e-01
       H -3.90754e+00  1.12518e+00  8.51358e-01
       H -2.92297e+00  1.16033e-01  1.83898e-01
       H -2.73832e+00  1.93491e+00 -1.26536e-01
4
# CELL(abcABC): 1000.00000  1000.00000  1000.00000    90.00000    90.00000    90.00000  Step:          17  Bead:       0 positions{angstrom}  cell{angstrom}
       O -3.13767e+00  1.06400e+00  3.64152e-01
       H -3.91690e+00  1.11943e+00  8.58876e-01
       H -2.91481e+00  1.22984e-01  1.77892e-01
       H -2.74885e+00  1.93912e+00 -1.31417e-01
4
# CELL(abcABC): 1000.00000  1000.00000  1000.00000    90.00000    90.00000    90.00000  Step:          18  Bead:       0 positions{angstrom}  cell{angstrom}
       O -3.13649e+00  1.06353e+00  3.64033e-01
       H -3.93237e+00  1.11493e+00  8.70212e-01
       H -2.90630e+00  1.32234e-01  1.72355e-01
       H -2.76060e+00  1.94178e+00 -1.35334e-01
4
# CELL(abcABC): 1000.00000  1000.00000  1000.00000    90.00000    90.00000    90.00000  Step:          19  Bead:       0 positions{angstrom}  cell{angstrom}
       O -3.13517e+00  1.06314e+00  3.63685e-01
       H -3.94985e+00  1.11047e+00  8.83931e-01
       H -2.89923e+00  1.42430e-01  1.66576e-01
       H -2.77118e+00  1.94227e+00 -1.37745e-01
4
# CELL(abcABC): 1000.00000  1000.00000  1000.00000    90.00000    90.00000    90.00000  Step:          20  Bead:       0 positions{angstrom}  cell{angstrom}
       O -3.13379e+00  1.06289e+00  3.63310e-01
       H -3.96694e+00  1.10635e+00  8.96412e-01
       H -2.89362e+00  1.53291e-01  1.61288e-01
       H -2.78151e+00  1.93939e+00 -1.38984e-01
4
# CELL(abcABC): 1000.00000  1000.00000  1000.00000    90.00000    90.00000    90.00000  Step:          21  Bead:       0 positions{angstrom}  cell{angstrom}
       O -3.13261e+00  1.06282e+00  3.63044e-01
       H -3.98193e+00  1.10148e+00  9.06373e-01
       H -2.88666e+00  1.64193e-01  1.56982e-01
       H -2.79220e+00  1.93450e+00 -1.40420e-01
4
# CELL(abcABC): 1000.00000  1000.00000  1000.00000    90.00000    90.00000    90.00000  Step:          22  Bead:       0 positions{angstrom}  cell{angstrom}
       O -3.13176e+00  1.06291e+00  3.63013e-01
       H -3.99390e+00  1.09535e+00  9.14822e-01
       H -2.87746e+00  1.73775e-01  1.50870e-01
       H -2.80300e+00  1.92971e+00 -1.42263e-01
4
# CELL(abcABC): 1000.00000  1000.00000  1000.00000    90.00000    90.00000    90.00000  Step:          23  Bead:       0 positions{angstrom}  cell{angstrom}
       O -3.13130e+00  1.06324e+00  3.63383e-01
       H -4.00045e+00  1.08935e+00  9.19475e-01
       H -2.86695e+00  1.81529e-01  1.44777e-01
       H -2.81430e+00  1.92260e+00 -1.46697e-01
4
# CELL(abcABC): 1000.00000  1000.00000  1000.00000    90.00000    90.00000    90.00000  Step:          24  Bead:       0 positions{angstrom}  cell{angstrom}
       O -3.13127e+00  1.06375e+00  3.64013e-01
       H -4.00061e+00  1.08197e+00  9.20426e-01
       H -2.85547e+00  1.87641e-01  1.38499e-01
       H -2.82605e+00  1.91588e+00 -1.51375e-01
4
# CELL(abcABC): 1000.00000  1000.00000  1000.00000    90.00000    90.00000    90.00000  Step:          25  Bead:       0 positions{angstrom}  cell{angstrom}
       O -3.13161e+00  1.06458e+00  3.64809e-01
       H -3.99502e+00  1.07326e+00  9.18550e-01
       H -2.84373e+00  1.90335e-01  1.32008e-01
       H -2.83792e+00  1.90868e+00 -1.55637e-01
4
# CELL(abcABC): 1000.00000  1000.00000  1000.00000    90.00000    90.00000    90.00000  Step:          26  Bead:       0 positions{angstrom}  cell{angstrom}
       O -3.13231e+00  1.06568e+00  3.65808e-01
       H -3.98414e+00  1.06366e+00  9.12642e-01
       H -2.83124e+00  1.90434e-01  1.25101e-01
       H -2.85021e+00  1.90074e+00 -1.58684e-01
4
# CELL(abcABC): 1000.00000  1000.00000  1000.00000    90.00000    90.00000    90.00000  Step:          27  Bead:       0 positions{angstrom}  cell{angstrom}
       O -3.13340e+00  1.06686e+00  3.67009e-01
       H -3.96915e+00  1.05487e+00  9.03399e-01
       H -2.81860e+00  1.88267e-01  1.17933e-01
       H -2.86060e+00  1.89301e+00 -1.61341e-01
4
# CELL(abcABC): 1000.00000  1000.00000  1000.00000    90.00000    90.00000    90.00000  Step:          28  Bead:       0 positions{angstrom}  cell{angstrom}
       O -3.13459e+00  1.06803e+00  3.68242e-01
       H -3.95256e+00  1.04448e+00  8.92365e-01
       H -2.80569e+00  1.85958e-01  1.11474e-01
       H -2.87116e+00  1.88715e+00 -1.63424e-01
4
# CELL(abcABC): 1000.00000  1000.00000  1000.00000    90.00000    90.00000    90.00000  Step:          29  Bead:       0 positions{angstrom}  cell{angstrom}
       O -3.13582e+00  1.06904e+00  3.69485e-01
       H -3.93469e+00  1.03437e+00  8.79584e-01
       H -2.79452e+00  1.84464e-01  1.05833e-01
       H -2.88069e+00  1.88264e+00 -1.64732e-01
4
# CELL(abcABC): 1000.00000  1000.00000  1000.00000    90.00000    90.00000    90.00000  Step:          30  Bead:       0 positions{angstrom}  cell{angstrom}
       O -3.13688e+00  1.06975e+00  3.70568e-01
       H -3.91845e+00  1.02516e+00  8.68889e-01
       H -2.78479e+00  1.84703e-01  1.01727e-01
       H -2.88989e+00  1.88034e+00 -1.67122e-01
4
# CELL(abcABC): 1000.00000  1000.00000  1000.00000    90.00000    90.00000    90.00000  Step:          31  Bead:       0 positions{angstrom}  cell{angstrom}
       O -3.13771e+00  1.07010e+00  3.71469e-01
       H -3.90532e+00  1.01589e+00  8.61407e-01
       H -2.77595e+00  1.88445e-01  9.83065e-02
       H -2.89862e+00  1.88034e+00 -1.70510e-01
4
# CELL(abcABC): 1000.00000  1000.00000  1000.00000    90.00000    90.00000    90.00000  Step:          32  Bead:       0 positions{angstrom}  cell{angstrom}
       O -3.13801e+00  1.07029e+00  3.71848e-01
       H -3.90004e+00  1.00431e+00  8.59023e-01
       H -2.76822e+00  1.96032e-01  9.74941e-02
       H -2.90686e+00  1.88131e+00 -1.73334e-01
4
# CELL(abcABC): 1000.00000  1000.00000  1000.00000    90.00000    90.00000    90.00000  Step:          33  Bead:       0 positions{angstrom}  cell{angstrom}
       O -3.13774e+00  1.07039e+00  3.71747e-01
       H -3.90309e+00  9.91408e-01  8.62870e-01
       H -2.76166e+00  2.04915e-01  9.84917e-02
       H -2.91468e+00  1.88366e+00 -1.76581e-01
4
# CELL(abcABC): 1000.00000  1000.00000  1000.00000    90.00000    90.00000    90.00000  Step:          34  Bead:       0 positions{angstrom}  cell{angstrom}
       O -3.13685e+00  1.07037e+00  3.71424e-01
       H -3.91252e+00  9.77645e-01  8.70901e-01
       H -2.75823e+00  2.15004e-01  1.00958e-01
       H -2.92282e+00  1.88770e+00 -1.81949e-01
4
# CELL(abcABC): 1000.00000  1000.00000  1000.00000    90.00000    90.00000    90.00000  Step:          35  Bead:       0 positions{angstrom}  cell{angstrom}
       O -3.13566e+00  1.07022e+00  3.70892e-01
       H -3.92493e+00  9.63276e-01  8.81093e-01
       H -2.75691e+00  2.26809e-01  1.04904e-01
       H -2.93058e+00  1.89273e+00 -1.87641e-01
4
# CELL(abcABC): 1000.00000  1000.00000  1000.00000    90.00000    90.00000    90.00000  Step:          36  Bead:       0 positions{angstrom}  cell{angstrom}
       O -3.13437e+00  1.06996e+00  3.70297e-01
       H -3.93931e+00  9.48690e-01  8.92005e-01
       H -2.75571e+00  2.39407e-01  1.08344e-01
       H -2.93792e+00  1.89882e+00 -1.92542e-01
4
# CELL(abcABC): 1000.00000  1000.00000  1000.00000    90.00000    90.00000    90.00000  Step:          37  Bead:       0 positions{angstrom}  cell{angstrom}
       O -3.13320e+00  1.06982e+00  3.69633e-01
       H -3.95288e+00  9.35048e-01  9.04302e-01
       H -2.75349e+00  2.49419e-01  1.11079e-01
       H -2.94519e+00  1.90456e+00 -1.97035e-01
4
# CELL(abcABC): 1000.00000  1000.00000  1000.00000    90.00000    90.00000    90.00000  Step:          38  Bead:       0 positions{angstrom}  cell{angstrom}
       O -3.13210e+00  1.06983e+00  3.69278e-01
       H -3.96516e+00  9.21684e-01  9.13660e-01
       H -2.74996e+00  2.55106e-01  1.12870e-01
       H -2.95380e+00  1.91214e+00 -2.02550e-01
4
# CELL(abcABC): 1000.00000  1000.00000  1000.00000    90.00000    90.00000    90.00000  Step:          39  Bead:       0 positions{angstrom}  cell{angstrom}
       O -3.13153e+00  1.07014e+00  3.69028e-01
       H -3.97289e+00  9.08542e-01  9.20757e-01
       H -2.74433e+00  2.55753e-01  1.14661e-01
       H -2.96076e+00  1.91967e+00 -2.07467e-01
4
# CELL(abcABC): 1000.00000  1000.00000  1000.00000    90.00000    90.00000    90.00000  Step:          40  Bead:       0 positions{angstrom}  cell{angstrom}
       O -3.13143e+00  1.07059e+00  3.68821e-01
       H -3.97580e+00  8.96635e-01  9.25425e-01
       H -2.73664e+00  2.52818e-01  1.17233e-01
       H -2.96721e+00  1.92749e+00 -2.11422e-01
4
# CELL(abcABC): 1000.00000  1000.00000  1000.00000    90.00000    90.00000    90.00000  Step:          41  Bead:       0 positions{angstrom}  cell{angstrom}
       O -3.13175e+00  1.07113e+00  3.68776e-01
       H -3.97379e+00  8.86771e-01  9.25984e-01
       H -2.72676e+00  2.47263e-01  1.19517e-01
       H -2.97392e+00  1.93427e+00 -2.13549e-01
4
# CELL(abcABC): 1000.00000  1000.00000  1000.00000    90.00000    90.00000    90.00000  Step:          42  Bead:       0 positions{angstrom}  cell{angstrom}
       O -3.13259e+00  1.07187e+00  3.68961e-01
       H -3.96514e+00  8.76472e-01  9.22562e-01
       H -2.71547e+00  2.39922e-01  1.21937e-01
       H -2.98054e+00  1.94016e+00 -2.15497e-01
4
# CELL(abcABC): 1000.00000  1000.00000  1000.00000    90.00000    90.00000    90.00000  Step:          43  Bead:       0 positions{angstrom}  cell{angstrom}
       O -3.13374e+00  1.07254e+00  3.69284e-01
       H -3.95218e+00  8.68414e-01  9.15529e-01
       H -2.70349e+00  2.33497e-01  1.24772e-01
       H -2.98729e+00  1.94409e+00 -2.16419e-01
4
# CELL(abcABC): 1000.00000  1000.00000  1000.00000    90.00000    90.00000    90.00000  Step:          44  Bead:       0 positions{angstrom}  cell{angstrom}
       O -3.13507e+00  1.07316e+00  3.69661e-01
       H -3.93553e+00  8.60977e-01  9.05352e-01
       H -2.69146e+00  2.27519e-01  1.27663e-01
       H -2.99484e+00  1.94758e+00 -2.15111e-01
4
# CELL(abcABC): 1000.00000  1000.00000  1000.00000    90.00000    90.00000    90.00000  Step:          45  Bead:       0 positions{angstrom}  cell{angstrom}
       O -3.13637e+00  1.07369e+00  3.70066e-01
       H -3.91760e+00  8.54683e-01  8.93086e-01
       H -2.67929e+00  2.22917e-01  1.30548e-01
       H -3.00424e+00  1.95012e+00 -2.12163e-01
4
# CELL(abcABC): 1000.00000  1000.00000  1000.00000    90.00000    90.00000    90.00000  Step:          46  Bead:       0 positions{angstrom}  cell{angstrom}
       O -3.13762e+00  1.07408e+00  3.70377e-01
       H -3.89998e+00  8.49567e-01  8.80352e-01
       H -2.66827e+00  2.20418e-01  1.33945e-01
       H -3.01301e+00  1.95151e+00 -2.07763e-01
4
# CELL(abcABC): 1000.00000  1000.00000  1000.00000    90.00000    90.00000    90.00000  Step:          47  Bead:       0 positions{angstrom}  cell{angstrom}
       O -3.13859e+00  1.07419e+00  3.70585e-01
       H -3.88489e+00  8.44148e-01  8.69421e-01
       H -2.65847e+00  2.21757e-01  1.37540e-01
       H -3.02263e+00  1.95382e+00 -2.03733e-01
4
# CELL(abcABC): 1000.00000  1000.00000  1000.00000    90.00000    90.00000    90.00000  Step:          48  Bead:       0 positions{angstrom}  cell{angstrom}
       O -3.13912e+00  1.07423e+00  3.70466e-01
       H -3.87406e+00  8.37008e-01  8.61835e-01
       H -2.65021e+00  2.27591e-01  1.41423e-01
       H -3.03330e+00  1.95443e+00 -1.98144e-01
4
# CELL(abcABC): 1000.00000  1000.00000  1000.00000    90.00000    90.00000    90.00000  Step:          49  Bead:       0 positions{angstrom}  cell{angstrom}
       O -3.13918e+00  1.07415e+00  3.69866e-01
       H -3.86947e+00  8.28176e-01  8.58912e-01
       H -2.64224e+00  2.36922e-01  1.46296e-01
       H -3.04484e+00  1.95521e+00 -1.90567e-01
4
# CELL(abcABC): 1000.00000  1000.00000  1000.00000    90.00000    90.00000    90.00000  Step:          50  Bead:       0 positions{angstrom}  cell{angstrom}
       O -3.13856e+00  1.07404e+00  3.69005e-01
       H -3.87184e+00  8.18051e-01  8.60022e-01
       H -2.63723e+00  2.48874e-01  1.51887e-01
       H -3.05730e+00  1.95517e+00 -1.83595e-01
4
# CELL(abcABC): 1000.00000  1000.00000  1000.00000    90.00000    90.00000    90.00000  Step:          51  Bead:       0 positions{angstrom}  cell{angstrom}
       O -3.13753e+00  1.07384e+00  3.67869e-01
       H -3.88035e+00  8.06347e-01  8.64383e-01
       H -2.63333e+00  2.63680e-01  1.57616e-01
       H -3.06912e+00  1.95523e+00 -1.75660e-01
4
# CELL(abcABC): 1000.00000  1000.00000  1000.00000    90.00000    90.00000    90.00000  Step:          52  Bead:       0 positions{angstrom}  cell{angstrom}
       O -3.13621e+00  1.07368e+00  3.66677e-01
       H -3.89318e+00  7.93850e-01  8.71172e-01
       H -2.62982e+00  2.79321e-01  1.62063e-01
       H -3.08071e+00  1.95460e+00 -1.67966e-01
4
# CELL(abcABC): 1000.00000  1000.00000  1000.00000    90.00000    90.00000    90.00000  Step:          53  Bead:       0 positions{angstrom}  cell{angstrom}
       O -3.13485e+00  1.07347e+00  3.65421e-01
       H -3.90707e+00  7.82068e-01  8.77925e-01
       H -2.62592e+00  2.96481e-01  1.66576e-01
       H -3.09227e+00  1.95268e+00 -1.59292e-01
4
# CELL(abcABC): 1000.00000  1000.00000  1000.00000    90.00000    90.00000    90.00000  Step:          54  Bead:       0 positions{angstrom}  cell{angstrom}
       O -3.13361e+00  1.07334e+00  3.63996e-01
       H -3.92058e+00  7.70304e-01  8.85272e-01
       H -2.62076e+00  3.12940e-01  1.70885e-01
       H -3.10359e+00  1.94998e+00 -1.48335e-01
4
# CELL(abcABC): 1000.00000  1000.00000  1000.00000    90.00000    90.00000    90.00000  Step:          55  Bead:       0 positions{angstrom}  cell{angstrom}
       O -3.13275e+00  1.07327e+00  3.62740e-01
       H -3.93237e+00  7.60222e-01  8.91750e-01
       H -2.61280e+00  3.26635e-01  1.74534e-01
       H -3.11352e+00  1.94750e+00 -1.38521e-01
4
# CELL(abcABC): 1000.00000  1000.00000  1000.00000    90.00000    90.00000    90.00000  Step:          56  Bead:       0 positions{angstrom}  cell{angstrom}
       O -3.13242e+00  1.07321e+00  3.61767e-01
       H -3.93821e+00  7.52414e-01  8.96321e-01
       H -2.60160e+00  3.36196e-01  1.75547e-01
       H -3.12397e+00  1.94669e+00 -1.28660e-01
4
# CELL(abcABC): 1000.00000  1000.00000  1000.00000    90.00000    90.00000    90.00000  Step:          57  Bead:       0 positions{angstrom}  cell{angstrom}
       O -3.13264e+00  1.07313e+00  3.61072e-01
       H -3.93786e+00  7.47424e-01  8.98463e-01
       H -2.58788e+00  3.41204e-01  1.76011e-01
       H -3.13462e+00  1.94790e+00 -1.20234e-01
4
# CELL(abcABC): 1000.00000  1000.00000  1000.00000    90.00000    90.00000    90.00000  Step:          58  Bead:       0 positions{angstrom}  cell{angstrom}
       O -3.13348e+00  1.07308e+00  3.60711e-01
       H -3.93153e+00  7.43930e-01  8.97421e-01
       H -2.57054e+00  3.42618e-01  1.75800e-01
       H -3.14500e+00  1.95086e+00 -1.13253e-01
4
# CELL(abcABC): 1000.00000  1000.00000  1000.00000    90.00000    90.00000    90.00000  Step:          59  Bead:       0 positions{angstrom}  cell{angstrom}
       O -3.13486e+00  1.07289e+00  3.60534e-01
       H -3.91962e+00  7.42597e-01  8.93722e-01
       H -2.55046e+00  3.42128e-01  1.76293e-01
       H -3.15511e+00  1.95567e+00 -1.07235e-01
4
# CELL(abcABC): 1000.00000  1000.00000  1000.00000    90.00000    90.00000    90.00000  Step:          60  Bead:       0 positions{angstrom}  cell{angstrom}
       O -3.13664e+00  1.07261e+00  3.60637e-01
       H -3.90496e+00  7.42528e-01  8.87975e-01
       H -2.52828e+00  3.40077e-01  1.74813e-01
       H -3.16365e+00  1.96229e+00 -1.01643e-01
4
# CELL(abcABC): 1000.00000  1000.00000  1000.00000    90.00000    90.00000    90.00000  Step:          61  Bead:       0 positions{angstrom}  cell{angstrom}
       O -3.13873e+00  1.07218e+00  3.60909e-01
       H -3.88689e+00  7.42951e-01  8.80746e-01
       H -2.50488e+00  3.38408e-01  1.72145e-01
       H -3.17199e+00  1.97035e+00 -9.60709e-02
4
# CELL(abcABC): 1000.00000  1000.00000  1000.00000    90.00000    90.00000    90.00000  Step:          62  Bead:       0 positions{angstrom}  cell{angstrom}
       O -3.14075e+00  1.07163e+00  3.61337e-01
       H -3.86890e+00  7.42708e-01  8.73110e-01
       H -2.48411e+00  3.38264e-01  1.69521e-01
       H -3.17870e+00  1.97935e+00 -9.26034e-02
4
# CELL(abcABC): 1000.00000  1000.00000  1000.00000    90.00000    90.00000    90.00000  Step:          63  Bead:       0 positions{angstrom}  cell{angstrom}
       O -3.14251e+00  1.07081e+00  3.61507e-01
       H -3.85197e+00  7.42651e-01  8.67434e-01
       H -2.46632e+00  3.40367e-01  1.67617e-01
       H -3.18548e+00  1.99035e+00 -8.77248e-02
4
# CELL(abcABC): 1000.00000  1000.00000  1000.00000    90.00000    90.00000    90.00000  Step:          64  Bead:       0 positions{angstrom}  cell{angstrom}
       O -3.14391e+00  1.06986e+00  3.61407e-01
       H -3.83725e+00  7.41143e-01  8.65717e-01
       H -2.45171e+00  3.45840e-01  1.66877e-01
       H -3.19255e+00  2.00147e+00 -8.36684e-02
4
# CELL(abcABC): 1000.00000  1000.00000  1000.00000    90.00000    90.00000    90.00000  Step:          65  Bead:       0 positions{angstrom}  cell{angstrom}
       O -3.14478e+00  1.06879e+00  3.60996e-01
       H -3.82839e+00  7.37760e-01  8.67099e-01
       H -2.44049e+00  3.56423e-01  1.67251e-01
       H -3.19874e+00  2.01130e+00 -7.89048e-02
4
# CELL(abcABC): 1000.00000  1000.00000  1000.00000    90.00000    90.00000    90.00000  Step:          66  Bead:       0 positions{angstrom}  cell{angstrom}
       O -3.14509e+00  1.06760e+00  3.60109e-01
       H -3.82543e+00  7.34138e-01  8.73899e-01
       H -2.43327e+00  3.69288e-01  1.69250e-01
       H -3.20403e+00  2.02084e+00 -7.36331e-02
4
# CELL(abcABC): 1000.00000  1000.00000  1000.00000    90.00000    90.00000    90.00000  Step:          67  Bead:       0 positions{angstrom}  cell{angstrom}
       O -3.14478e+00  1.06652e+00  3.58845e-01
       H -3.82760e+00  7.27113e-01  8.84349e-01
       H -2.42945e+00  3.85594e-01  1.73024e-01
       H -3.21055e+00  2.02872e+00 -6.77836e-02
4
# CELL(abcABC): 1000.00000  1000.00000  1000.00000    90.00000    90.00000    90.00000  Step:          68  Bead:       0 positions{angstrom}  cell{angstrom}
       O -3.14409e+00  1.06545e+00  3.57424e-01
       H -3.83311e+00  7.17919e-01  8.97897e-01
       H -2.42853e+00  4.04609e-01  1.76282e-01
       H -3.21703e+00  2.03600e+00 -6.20336e-02
4
# CELL(abcABC): 1000.00000  1000.00000  1000.00000    90.00000    90.00000    90.00000  Step:          69  Bead:       0 positions{angstrom}  cell{angstrom}
       O -3.14309e+00  1.06456e+00  3.55629e-01
       H -3.84102e+00  7.06115e-01  9.14971e-01
       H -2.43052e+00  4.25321e-01  1.81231e-01
       H -3.22298e+00  2.04116e+00 -5.55750e-02
4
# CELL(abcABC): 1000.00000  1000.00000  1000.00000    90.00000    90.00000    90.00000  Step:          70  Bead:       0 positions{angstrom}  cell{angstrom}
       O -3.14224e+00  1.06364e+00  3.53781e-01
       H -3.84834e+00  6.94785e-01  9.31243e-01
       H -2.43301e+00  4.47066e-01  1.86291e-01
       H -3.22662e+00  2.04529e+00 -4.75744e-02
4
# CELL(abcABC): 1000.00000  1000.00000  1000.00000    90.00000    90.00000    90.00000  Step:          71  Bead:       0 positions{angstrom}  cell{angstrom}
       O -3.14157e+00  1.06295e+00  3.52067e-01
       H -3.85434e+00  6.83022e-01  9.44749e-01
       H -2.43485e+00  4.67028e-01  1.90873e-01
       H -3.22939e+00  2.04804e+00 -3.84406e-02
4
# CELL(abcABC): 1000.00000  1000.00000  1000.00000    90.00000    90.00000    90.00000  Step:          72  Bead:       0 positions{angstrom}  cell{angstrom}
       O -3.14137e+00  1.06236e+00  3.50468e-01
       H -3.85661e+00  6.72798e-01  9.55983e-01
       H -2.43362e+00  4.84424e-01  1.95775e-01
       H -3.23156e+00  2.05026e+00 -2.92055e-02
4
# CELL(abcABC): 1000.00000  1000.00000  1000.00000    90.00000    90.00000    90.00000  Step:          73  Bead:       0 positions{angstrom}  cell{angstrom}
       O -3.14170e+00  1.06204e+00  3.49175e-01
       H -3.85480e+00  6.64090e-01  9.63742e-01
       H -2.42809e+00  4.98370e-01  2.00009e-01
       H -3.23366e+00  2.05021e+00 -2.06675e-02
4
# CELL(abcABC): 1000.00000  1000.00000  1000.00000    90.00000    90.00000    90.00000  Step:          74  Bead:       0 positions{angstrom}  cell{angstrom}
       O -3.14270e+00  1.06189e+00  3.48312e-01
       H -3.84806e+00  6.57338e-01  9.66471e-01
       H -2.41758e+00  5.08081e-01  2.02298e-01
       H -3.23501e+00  2.04960e+00 -1.19941e-02
4
# CELL(abcABC): 1000.00000  1000.00000  1000.00000    90.00000    90.00000    90.00000  Step:          75  Bead:       0 positions{angstrom}  cell{angstrom}
       O -3.14415e+00  1.06198e+00  3.47721e-01
       H -3.83732e+00  6.51447e-01  9.64946e-01
       H -2.40307e+00  5.13286e-01  2.04678e-01
       H -3.23732e+00  2.04882e+00 -3.46434e-03
4
# CELL(abcABC): 1000.00000  1000.00000  1000.00000    90.00000    90.00000    90.00000  Step:          76  Bead:       0 positions{angstrom}  cell{angstrom}
       O -3.14616e+00  1.06209e+00  3.47240e-01
       H -3.82178e+00  6.47456e-01  9.61185e-01
       H -2.38533e+00  5.15615e-01  2.06753e-01
       H -3.23868e+00  2.04880e+00  5.85562e-03
4
# CELL(abcABC): 1000.00000  1000.00000  1000.00000    90.00000    90.00000    90.00000  Step:          77  Bead:       0 positions{angstrom}  cell{angstrom}
       O -3.14839e+00  1.06223e+00  3.46889e-01
       H -3.80327e+00  6.45624e-01  9.54870e-01
       H -2.36646e+00  5.16638e-01  2.09382e-01
       H -3.24062e+00  2.04734e+00  1.51083e-02
4
# CELL(abcABC): 1000.00000  1000.00000  1000.00000    90.00000    90.00000    90.00000  Step:          78  Bead:       0 positions{angstrom}  cell{angstrom}
       O -3.15066e+00  1.06239e+00  3.46783e-01
       H -3.78422e+00  6.43724e-01  9.46176e-01
       H -2.34696e+00  5.18004e-01  2.12015e-01
       H -3.24308e+00  2.04525e+00  2.28555e-02
4
# CELL(abcABC): 1000.00000  1000.00000  1000.00000    90.00000    90.00000    90.00000  Step:          79  Bead:       0 positions{angstrom}  cell{angstrom}
       O -3.15288e+00  1.06264e+00  3.46627e-01
       H -3.76573e+00  6.42101e-01  9.38691e-01
       H -2.32802e+00  5.19383e-01  2.14949e-01
       H -3.24536e+00  2.04157e+00  2.98782e-02
4
# CELL(abcABC): 1000.00000  1000.00000  1000.00000    90.00000    90.00000    90.00000  Step:          80  Bead:       0 positions{angstrom}  cell{angstrom}
       O -3.15487e+00  1.06287e+00  3.46248e-01
       H -3.74839e+00  6.39606e-01  9.32623e-01
       H -2.31190e+00  5.22327e-01  2.19623e-01
       H -3.24725e+00  2.03748e+00  3.72924e-02
4
# CELL(abcABC): 1000.00000  1000.00000  1000.00000    90.00000    90.00000    90.00000  Step:          81  Bead:       0 positions{angstrom}  cell{angstrom}
       O -3.15644e+00  1.06292e+00  3.45727e-01
       H -3.73199e+00  6.35960e-01  9.28738e-01
       H -2.30059e+00  5.29665e-01  2.25268e-01
       H -3.25007e+00  2.03300e+00  4.38013e-02
4
# CELL(abcABC): 1000.00000  1000.00000  1000.00000    90.00000    90.00000    90.00000  Step:          82  Bead:       0 positions{angstrom}  cell{angstrom}
       O -3.15740e+00  1.06307e+00  3.44837e-01
       H -3.71918e+00  6.28951e-01  9.29632e-01
       H -2.29363e+00  5.38657e-01  2.31602e-01
       H -3.25453e+00  2.02863e+00  5.06996e-02
4
# CELL(abcABC): 1000.00000  1000.00000  1000.00000    90.00000    90.00000    90.00000  Step:          83  Bead:       0 positions{angstrom}  cell{angstrom}
       O -3.15776e+00  1.06310e+00  3.43660e-01
       H -3.71106e+00  6.19360e-01  9.35414e-01
       H -2.29143e+00  5.50980e-01  2.38571e-01
       H -3.25912e+00  2.02536e+00  5.66406e-02
4
# CELL(abcABC): 1000.00000  1000.00000  1000.00000    90.00000    90.00000    90.00000  Step:          84  Bead:       0 positions{angstrom}  cell{angstrom}
       O -3.15750e+00  1.06306e+00  3.42270e-01
       H -3.70621e+00  6.06429e-01  9.44195e-01
       H -2.29461e+00  5.66232e-01  2.45851e-01
       H -3.26487e+00  2.02380e+00  6.26330e-02
4
# CELL(abcABC): 1000.00000  1000.00000  1000.00000    90.00000    90.00000    90.00000  Step:          85  Bead:       0 positions{angstrom}  cell{angstrom}