11115
# CELL(abcABC):   47.66706    47.66706    47.66706    90.00000    90.00000    90.00000  Step:       10000  Bead:       0 positions{angstrom}  cell{angstrom}
       C  5.88779e+00  5.86184e+00  5.06054e+00
       H  5.22820e+00  6.08587e+00  5.91877e+00
       H  5.28482e+00  6.37300e+00  4.23514e+00
       H  6.78916e+00  6.38314e+00  5.19069e+00
       C  6.12197e+00  4.43145e+00  4.83911e+00
       O  5.17540e+00  3.71445e+00  4.64792e+00
       N  7.39883e+00  4.03482e+00  4.83246e+00
       H  8.13161e+00  4.68599e+00  5.16744e+00
       C  7.92545e+00  2.72615e+00  4.25619e+00
       H  7.30301e+00  2.56681e+00  3.39892e+00
       C  9.27291e+00  2.93014e+00  3.65958e+00
       H  9.96377e+00  3.01633e+00  4.44847e+00
       H  9.30647e+00  3.86935e+00  3.16271e+00
       C  9.76781e+00  1.92960e+00  2.65824e+00
       O  1.09272e+01  2.09549e+00  2.17391e+00
       O  9.05718e+00  9.68756e-01  2.29482e+00
       H  9.43562e+00  2.60408e-01  1.57310e+00
       C  7.92828e+00  1.39292e+00  5.16355e+00
       O  8.59527e+00  3.91612e-01  4.98330e+00
       N  7.15370e+00  1.51597e+00  6.24814e+00
       H  7.10797e+00  8.80964e-01  6.99168e+00
       H  6.53631e+00  2.28282e+00  6.27791e+00
       O -1.73982e+01 -1.28364e+01 -8.52477e+00
       H -1.68358e+01 -1.22204e+01 -8.08585e+00
       H -1.74062e+01 -1.25231e+01 -9.42869e+00
       O -3.46160e+01 -2.41353e+01 -2.81150e+01
       H -3.54366e+01 -2.41625e+01 -2.75804e+01
       H -3.48993e+01 -2.46766e+01 -2.88169e+01
       O -1.25009e+01 -1.09802e+01  2.29196e+00
       H -1.16681e+01 -1.15098e+01  2.23733e+00
       H -1.31072e+01 -1.16146e+01  2.03771e+00
       O -2.24623e+01 -3.43408e+01 -1.52518e+01
       H -2.30619e+01 -3.47720e+01 -1.58806e+01
       H -2.18931e+01 -3.50741e+01 -1.51509e+01
       O -2.76330e+01 -2.18485e+01 -2.29456e+00
       H -2.70174e+01 -2.23088e+01 -2.89636e+00
       H -2.78262e+01 -2.25192e+01 -1.58194e+00
       O -2.50079e+01 -2.76747e+01 -1.61383e+01
       H -2.53060e+01 -2.86151e+01 -1.62461e+01
       H -2.53730e+01 -2.72917e+01 -1.69784e+01
       O -2.56362e+01 -3.03196e+01 -1.60944e+01
       H -2.49553e+01 -3.08111e+01 -1.65713e+01
       H -2.57161e+01 -3.09514e+01 -1.53551e+01
       O -2.23987e+01 -1.41854e+01 -1.76548e+01
       H -2.28182e+01 -1.39775e+01 -1.67393e+01
       H -2.14167e+01 -1.40863e+01 -1.74898e+01
       O -1.45004e+01 -3.03783e+01 -2.53102e+01
       H -1.48692e+01 -2.95462e+01 -2.49780e+01
       H -1.38059e+01 -3.00502e+01 -2.59068e+01
       O  1.31794e+00 -3.50176e+01 -1.04907e+00
       H  2.14272e+00 -3.50620e+01 -1.56449e+00
       H  1.68182e+00 -3.46200e+01 -2.38220e-01
       O -2.01015e+01 -8.02697e+00 -2.38482e+01
       H -2.05614e+01 -8.80286e+00 -2.41749e+01
       H -1.94959e+01 -8.42768e+00 -2.31547e+01
       O -2.35038e-01  1.08058e+01 -2.59873e+00
       H -1.15038e+00  1.10941e+01 -2.20997e+00
       H  2.55122e-01  1.14827e+01 -2.16110e+00
       O -1.41046e+01 -2.75972e+01 -2.45298e+01
       H -1.42684e+01 -2.67341e+01 -2.50120e+01
       H -1.38272e+01 -2.71917e+01 -2.36922e+01
       O -2.16802e+01 -1.43373e+01 -1.09444e+01
       H -2.15646e+01 -1.44539e+01 -1.19075e+01
       H -2.07564e+01 -1.40569e+01 -1.06647e+01
       O -3.62450e+01 -3.29504e+01 -4.14790e+01
       H -3.57423e+01 -3.38178e+01 -4.13719e+01
       H -3.54901e+01 -3.23234e+01 -4.17892e+01
       O -1.59754e+01 -1.82171e+01 -1.54766e+01
       H -1.62647e+01 -1.91045e+01 -1.58564e+01
       H -1.53161e+01 -1.84887e+01 -1.48207e+01
       O -3.05781e+01 -3.24874e+01  1.25440e+01
       H -3.05574e+01 -3.34140e+01  1.28458e+01
       H -3.07652e+01 -3.27164e+01  1.16086e+01
       O -1.53381e+01 -1.39796e+00 -2.67293e+01
       H -1.49483e+01 -9.99815e-01 -2.58855e+01
       H -1.62029e+01 -1.62139e+00 -2.63361e+01
       O -2.15971e+01 -1.91942e+01  1.15250e+01
       H -2.08570e+01 -1.90205e+01  1.08818e+01
       H -2.22100e+01 -1.96575e+01  1.09491e+01
       O -3.26686e+01  1.12799e+01 -3.73634e+01
       H -3.21599e+01  1.16443e+01 -3.81138e+01
       H -3.35755e+01  1.13112e+01 -3.77334e+01
       O -3.55872e+00 -3.08257e+01 -1.55757e+01
       H -3.77661e+00 -3.03608e+01 -1.63588e+01
       H -3.43028e+00 -3.01395e+01 -1.49047e+01
       O -3.81672e+01 -4.41275e+00 -2.66458e+01
       H -3.72698e+01 -4.47068e+00 -2.62661e+01
       H -3.82245e+01 -3.47649e+00 -2.67723e+01
       O -2.38283e+00 -5.90076e+00 -1.14113e+01
       H -3.03543e+00 -5.53282e+00 -1.19848e+01
       H -2.49574e+00 -5.51598e+00 -1.05307e+01
       O -2.70877e+01 -1.81748e+01 -1.66015e+01
       H -2.73600e+01 -1.90481e+01 -1.69439e+01
       H -2.75771e+01 -1.75298e+01 -1.72185e+01
       O -1.23506e+01 -3.85972e+01 -3.43371e+01
       H -1.30940e+01 -3.79584e+01 -3.41601e+01
       H -1.16416e+01 -3.80035e+01 -3.47031e+01
       O -1.00353e+01 -4.84520e+00 -2.53068e+01
       H -1.07015e+01 -4.40930e+00 -2.47175e+01
       H -1.02995e+01 -4.46709e+00 -2.61691e+01
       O -1.14018e+01  2.05905e+01 -1.07630e+01
       H -1.05551e+01  2.01683e+01 -1.06876e+01
       H -1.18492e+01  1.99575e+01 -1.01721e+01
       O -1.28816e+01 -5.33917e+00  3.81458e+00
       H -1.25843e+01 -5.64016e+00  3.00956e+00
       H -1.19980e+01 -5.21146e+00  4.22189e+00
       O -1.36033e+01 -1.28645e+01 -1.45691e+01
       H -1.45023e+01 -1.24548e+01 -1.47031e+01
       H -1.37104e+01 -1.36310e+01 -1.40141e+01
       O -9.65016e+00 -1.76764e+01 -4.85031e+00
       H -1.06208e+01 -1.76592e+01 -5.03632e+00
       H -9.57751e+00 -1.84311e+01 -4.18440e+00
       O  1.52190e+01  7.85531e+00 -4.50625e+01
       H  1.48628e+01  8.52157e+00 -4.44622e+01
       H  1.48353e+01  7.00678e+00 -4.48333e+01
       O  8.22635e+00 -2.31227e+01 -2.07356e+01
       H  8.74171e+00 -2.30321e+01 -2.15671e+01
       H  7.63085e+00 -2.37143e+01 -2.11666e+01
       O  3.41804e+00 -2.53951e+00 -2.72210e+00
       H  2.96632e+00 -1.69715e+00 -2.72955e+00
       H  3.18898e+00 -3.01217e+00 -3.54190e+00
       O -3.78496e+01 -1.83026e+01  6.05421e-01
       H -3.87151e+01 -1.81286e+01  8.31430e-01
       H -3.73613e+01 -1.75023e+01  9.55155e-01
       O -5.47299e+00 -1.71404e+01 -1.76478e+01
       H -4.80396e+00 -1.74437e+01 -1.83342e+01
       H -5.07622e+00 -1.73835e+01 -1.67863e+01
       O -1.13051e+01 -2.20987e+01 -2.92997e+01
       H -1.04145e+01 -2.19088e+01 -2.94900e+01
       H -1.18546e+01 -2.14301e+01 -2.97316e+01
       O -1.21246e+01 -2.60202e+01 -4.15402e-01
       H -1.19743e+01 -2.64765e+01 -1.24376e+00
       H -1.14118e+01 -2.53149e+01 -3.79263e-01
       O -1.72546e+01 -3.80431e+01 -1.75975e+01
       H -1.80320e+01 -3.78387e+01 -1.81267e+01
       H -1.65151e+01 -3.78219e+01 -1.82359e+01
       O -9.13196e+00 -7.24242e+00  3.91812e+00
       H -9.33947e+00 -7.72032e+00  3.09165e+00
       H -9.74973e+00 -7.62589e+00  4.54728e+00
       O  1.21701e+01 -9.85354e-01 -4.17827e+01
       H  1.24123e+01 -1.92720e+00 -4.18875e+01
       H  1.14458e+01 -9.89256e-01 -4.24022e+01
       O -1.43785e+00 -2.81155e+01 -2.32556e+01
       H -2.36348e+00 -2.82208e+01 -2.28818e+01
       H -8.89489e-01 -2.80431e+01 -2.24412e+01
       O -3.51811e+01 -1.43951e+01 -6.33406e+00
       H -3.61211e+01 -1.46005e+01 -6.07778e+00
       H -3.52857e+01 -1.38253e+01 -7.15600e+00
       O  6.45109e+00 -1.25634e+01 -1.70408e+01
       H  6.81785e+00 -1.29702e+01 -1.63082e+01
       H  5.92822e+00 -1.18442e+01 -1.66437e+01
       O -2.12983e+01 -5.31181e+01 -3.06814e+01
       H -2.19739e+01 -5.35542e+01 -3.11944e+01
       H -2.10077e+01 -5.38444e+01 -3.00964e+01
       O -1.76871e+01 -6.00825e+00 -4.09434e+01
       H -1.72767e+01 -6.91808e+00 -4.07837e+01
       H -1.68983e+01 -5.45380e+00 -4.06435e+01
       O -1.16276e+01  4.09544e+00 -3.81554e+01
       H -1.16092e+01  4.28517e+00 -3.90947e+01
       H -1.06499e+01  4.25974e+00 -3.80352e+01
       O -5.42451e+01 -2.46008e+01 -8.40741e+00
       H -5.48200e+01 -2.46929e+01 -9.18777e+00
       H -5.47447e+01 -2.51712e+01 -7.82849e+00
       O -3.30120e+01 -1.37451e+01 -8.55232e+00
       H -3.31952e+01 -1.45430e+01 -9.05506e+00
       H -3.38398e+01 -1.32175e+01 -8.48359e+00
       O -2.32828e+01 -2.31484e+01 -2.01430e+01
       H -2.34973e+01 -2.40537e+01 -1.97788e+01
       H -2.32064e+01 -2.32367e+01 -2.11033e+01
       O  8.86221e+00 -2.72641e+00 -4.34130e-01
       H  9.75664e+00 -2.21351e+00 -4.33058e-01
       H  8.22509e+00 -2.02260e+00 -5.12784e-01
       O  3.00513e-01  5.81858e+00  7.48561e+00
       H -4.90319e-01  5.31250e+00  7.74595e+00
       H  1.72272e-01  6.66101e+00  7.90484e+00
       O -1.43356e+00 -8.18150e-01 -1.03581e+00
       H -1.10498e+00 -1.80826e+00 -8.56184e-01
       H -2.29364e+00 -1.02723e+00 -1.41127e+00
       O -1.47089e+01 -7.68129e+00 -1.29503e+01
       H -1.39426e+01 -7.03272e+00 -1.27107e+01
       H -1.45604e+01 -7.96526e+00 -1.38560e+01
       O -5.49192e+00  1.69577e+01 -2.36506e+01
       H -5.54597e+00  1.61774e+01 -2.31292e+01
       H -6.40333e+00  1.68870e+01 -2.39951e+01
       O -1.70517e+01 -8.09625e+00 -7.64276e+00
       H -1.64203e+01 -8.29034e+00 -6.97372e+00
       H -1.64875e+01 -8.02008e+00 -8.37667e+00
       O -1.01942e+01 -3.67379e+01 -3.13063e+01
       H -1.04494e+01 -3.70592e+01 -3.04182e+01
       H -9.29386e+00 -3.64706e+01 -3.10508e+01
       O -1.61675e+01 -2.46358e+01 -9.37879e+00
       H -1.53917e+01 -2.42267e+01 -8.98420e+00
       H -1.62390e+01 -2.54435e+01 -8.86200e+00
       O -1.92820e+01 -4.13890e+01 -8.26072e+00
       H -2.00757e+01 -4.08372e+01 -8.26282e+00
       H -1.86957e+01 -4.08504e+01 -7.72891e+00
       O  4.99198e+00  1.06685e+00 -4.36131e+00
       H  5.22951e+00  2.09549e-01 -4.70990e+00
       H  4.81975e+00  1.51245e+00 -5.18567e+00
       O -2.80739e+00 -2.55746e+01 -3.44567e+01
       H -3.17990e+00 -2.56381e+01 -3.36037e+01
       H -1.92533e+00 -2.51483e+01 -3.41525e+01
       O  8.67592e+00  4.17195e-01 -2.32269e+01
       H  8.42724e+00  6.93773e-01 -2.23044e+01
       H  9.48844e+00  9.23268e-01 -2.33056e+01
       O -3.99600e+01 -1.92650e+01 -1.11623e+01
       H -3.97641e+01 -1.90894e+01 -1.20724e+01
       H -3.91515e+01 -1.88360e+01 -1.08299e+01
       O -1.51805e+01 -4.68163e+01 -2.10238e+01
       H -1.53588e+01 -4.63959e+01 -2.00886e+01
       H -1.60190e+01 -4.73507e+01 -2.10996e+01
       O -1.50526e+01 -2.68635e+01 -7.99036e+00
       H -1.53110e+01 -2.66505e+01 -7.08791e+00
       H -1.41068e+01 -2.66842e+01 -7.92135e+00
       O  6.76074e+00 -2.21139e+01 -1.87775e+01
       H  6.10192e+00 -2.28044e+01 -1.85795e+01
       H  7.17389e+00 -2.24646e+01 -1.95332e+01
       O -2.30689e+01 -3.86154e+01 -1.82669e+01
       H -2.31562e+01 -3.91591e+01 -1.90654e+01
       H -2.40152e+01 -3.82679e+01 -1.81644e+01
       O -3.87776e+01 -1.45374e+01 -2.05959e+01
       H -3.92915e+01 -1.39764e+01 -1.99360e+01
       H -3.86998e+01 -1.53963e+01 -2.00723e+01
       O -1.93694e+01 -1.74356e+01 -3.30348e+01
       H -1.97580e+01 -1.73916e+01 -3.39060e+01
       H -2.00712e+01 -1.79625e+01 -3.25735e+01
       O -2.21120e+01  4.00756e+00 -2.11073e+01
       H -2.18845e+01  4.58359e+00 -2.03684e+01
       H -2.14824e+01  4.39308e+00 -2.17593e+01
       O -2.20328e+01 -8.86676e+00 -1.22826e+01
       H -2.19485e+01 -8.67991e+00 -1.13747e+01
       H -2.19570e+01 -7.96967e+00 -1.27297e+01
       O -1.75768e+01 -2.73778e+01  1.03886e+01
       H -1.67602e+01 -2.68763e+01  1.01663e+01
       H -1.71626e+01 -2.77413e+01  1.11799e+01
       O  3.33688e+00 -1.05475e+01  1.63155e+00
       H  2.99264e+00 -9.66994e+00  1.58576e+00
       H  4.26801e+00 -1.02568e+01  1.67629e+00
       O -1.35617e+01 -2.38189e+01 -3.28955e+01
       H -1.39074e+01 -2.46474e+01 -3.31979e+01
       H -1.27667e+01 -2.36137e+01 -3.34219e+01
       O -1.12742e+01 -2.31268e+01 -3.41408e+01
       H -1.05681e+01 -2.36755e+01 -3.38853e+01
       H -1.12167e+01 -2.30785e+01 -3.51122e+01
       O -2.62359e+01 -3.58317e+01  1.02500e+01
       H -2.71371e+01 -3.55538e+01  1.01266e+01
       H -2.56645e+01 -3.50255e+01  1.01171e+01
       O -2.54096e+01 -2.50537e+01 -3.08356e+01
       H -2.61586e+01 -2.55376e+01 -3.04648e+01
       H -2.55364e+01 -2.42328e+01 -3.03771e+01
       O -6.46131e+00 -1.79693e+01  1.69454e+01
       H -6.12389e+00 -1.88352e+01  1.68457e+01
       H -5.94351e+00 -1.76923e+01  1.77513e+01
       O -4.01714e+01 -6.79287e+00 -1.75979e+00
       H -4.08593e+01 -6.67965e+00 -2.44164e+00
       H -3.94043e+01 -7.19948e+00 -2.22975e+00
       O -1.38573e+01 -2.57009e+01 -4.06032e+00
       H -1.36628e+01 -2.51172e+01 -3.33286e+00
       H -1.30273e+01 -2.56015e+01 -4.52699e+00
       O -2.04660e+01 -2.27239e+01 -2.19238e+01
       H -2.10150e+01 -2.33936e+01 -2.15464e+01
       H -2.04812e+01 -2.31334e+01 -2.28249e+01
       O -6.17639e+00 -1.24313e+01 -1.95764e+01
       H -5.91139e+00 -1.19805e+01 -1.87164e+01
       H -7.11742e+00 -1.26484e+01 -1.95686e+01
       O -9.65585e+00 -1.93836e+01 -1.26592e+01
       H -1.01802e+01 -2.02102e+01 -1.26881e+01
       H -9.51115e+00 -1.93159e+01 -1.16351e+01
       O -3.21657e+01  1.52948e+01 -1.42124e+01
       H -3.29732e+01  1.53633e+01 -1.36375e+01
       H -3.22874e+01  1.46166e+01 -1.48557e+01
       O -3.29565e+00 -1.98882e+01 -2.45470e+01
       H -3.50513e+00 -2.05060e+01 -2.38028e+01
       H -2.73636e+00 -1.92754e+01 -2.40637e+01
       O -8.95468e+00 -2.66869e+01 -4.23080e+01
       H -8.12401e+00 -2.63319e+01 -4.26021e+01
       H -8.88344e+00 -2.76862e+01 -4.23965e+01
       O -1.50143e+01 -2.08765e+01 -1.96306e+01
       H -1.46171e+01 -2.16088e+01 -2.00681e+01
       H -1.42768e+01 -2.02685e+01 -1.96408e+01
       O -1.00675e+01  5.75511e+00 -1.73238e+01
       H -1.08696e+01  5.88351e+00 -1.78652e+01
       H -1.04830e+01  4.98540e+00 -1.68482e+01
       O -1.05413e+01 -2.59484e+01 -3.96547e+01
       H -9.54394e+00 -2.60347e+01 -3.95872e+01
       H -1.06683e+01 -2.68593e+01 -3.95564e+01
       O -4.42818e+01 -2.98202e+01 -9.06851e+00
       H -4.38732e+01 -2.92309e+01 -8.39896e+00
       H -4.37671e+01 -2.96392e+01 -9.84286e+00
       O -2.08701e+01 -1.97571e+01  1.40976e+01
       H -2.11198e+01 -2.07360e+01  1.39443e+01
       H -2.13277e+01 -1.94093e+01  1.33104e+01
       O -1.08793e+00  4.35995e+00  2.79170e+00
       H -7.48097e-01  4.55022e+00  3.63829e+00
       H -2.75111e-01  3.93290e+00  2.46971e+00
       O -2.26234e+01 -3.03537e+01 -1.33964e+01
       H -2.22613e+01 -3.04117e+01 -1.43373e+01
       H -2.26187e+01 -2.93526e+01 -1.33880e+01
       O  3.09986e+00 -1.01505e+01  1.16171e+01
       H  3.31601e+00 -9.75854e+00  1.07241e+01
       H  2.27151e+00 -1.05637e+01  1.13743e+01
       O -1.02523e+01 -4.61557e+00 -8.10682e+00
       H -9.40570e+00 -4.43545e+00 -8.52639e+00
       H -1.00704e+01 -4.73516e+00 -7.10822e+00
       O  1.12582e+01  1.08922e+01  3.06272e+00
       H  1.11458e+01  1.05742e+01  2.16403e+00
       H  1.19821e+01  1.14787e+01  2.93753e+00
       O -1.15341e+01 -3.96076e+00 -3.59294e+01
       H -1.15343e+01 -4.03938e+00 -3.50263e+01
       H -1.05946e+01 -3.66628e+00 -3.60508e+01
       O -5.42319e+00 -1.04486e+01 -3.28524e+01
       H -4.90816e+00 -1.12438e+01 -3.31152e+01
       H -6.31403e+00 -1.08338e+01 -3.28663e+01
       O -1.87566e+01 -9.34387e+00 -2.15090e+01
       H -1.79733e+01 -9.26895e+00 -2.09031e+01
       H -1.84790e+01 -1.00956e+01 -2.20537e+01
       O -2.27258e+01 -2.92101e+01 -3.95409e+01
       H -2.23679e+01 -2.91448e+01 -4.03981e+01
       H -2.34032e+01 -2.98468e+01 -3.97401e+01
       O -6.23149e+00  9.95305e-01  5.93706e+00
       H -6.25672e+00  5.96020e-02  5.82147e+00
       H -6.22168e+00  1.02053e+00  6.91754e+00
       O -1.92449e+01 -2.84599e+01 -1.35909e+01
       H -2.01670e+01 -2.84897e+01 -1.32831e+01
       H -1.88381e+01 -2.92686e+01 -1.32287e+01
       O  2.96353e+00 -6.80834e+00 -1.15465e+01
       H  2.75237e+00 -7.61877e+00 -1.20616e+01
       H  2.08347e+00 -6.45573e+00 -1.14362e+01
       O -2.31996e+00 -1.38173e+01 -5.79686e+00
       H -2.14430e+00 -1.46016e+01 -6.32489e+00
       H -1.57609e+00 -1.38211e+01 -5.11934e+00
       O  2.06918e+01  1.70177e+01 -2.11792e+01
       H  2.07102e+01  1.63018e+01 -2.04942e+01
       H  2.15503e+01  1.74486e+01 -2.11108e+01
       O -1.63600e+01 -2.08529e+01 -7.45050e+00
       H -1.60829e+01 -2.03583e+01 -6.65275e+00
       H -1.57571e+01 -2.15611e+01 -7.30492e+00
       O -2.14614e+01 -3.78699e+01 -6.10860e+00
       H -2.18794e+01 -3.72840e+01 -5.40869e+00
       H -2.18704e+01 -3.87597e+01 -5.87073e+00
       O -7.46988e+00 -3.42294e+01 -1.43532e+01
       H -8.40999e+00 -3.44019e+01 -1.43634e+01
       H -7.43472e+00 -3.33105e+01 -1.40145e+01
       O -2.91780e+00 -2.47200e+01 -1.66562e+01
       H -2.70198e+00 -2.42171e+01 -1.57549e+01
       H -2.70549e+00 -2.39900e+01 -1.73331e+01
       O -2.85473e+01 -7.40645e+00 -2.51001e+01
       H -2.77253e+01 -7.20292e+00 -2.45296e+01
       H -2.90975e+01 -7.81073e+00 -2.44030e+01
       O -2.12936e+01 -3.24278e+01 -2.15759e+01
       H -2.22852e+01 -3.26369e+01 -2.16032e+01
       H -2.09565e+01 -3.31254e+01 -2.21020e+01
       O -1.48241e+01 -7.42831e+00 -4.80874e+00
       H -1.50231e+01 -6.64235e+00 -5.43759e+00
       H -1.39076e+01 -7.21232e+00 -4.50706e+00
       O -1.92654e+01 -5.30485e+01 -4.98287e+01
       H -1.88704e+01 -5.21451e+01 -5.00312e+01
       H -1.84973e+01 -5.36261e+01 -4.99343e+01
       O -1.08869e+01 -2.18579e+01 -1.33489e+01
       H -1.10730e+01 -2.19529e+01 -1.24036e+01
       H -1.14606e+01 -2.25164e+01 -1.38103e+01
       O -1.43017e+01 -3.36194e+01 -1.78001e+01
       H -1.46058e+01 -3.28645e+01 -1.83120e+01
       H -1.50886e+01 -3.39839e+01 -1.74430e+01
       O -1.09317e+01 -8.84093e+00 -1.59191e+01
       H -1.11204e+01 -9.74190e+00 -1.62829e+01
       H -1.17696e+01 -8.85793e+00 -1.53289e+01
       O -2.38625e+01 -1.72794e+01 -1.76466e+01
       H -2.41787e+01 -1.68197e+01 -1.68323e+01
       H -2.37405e+01 -1.64406e+01 -1.81835e+01
       O -1.06789e+01 -1.81786e+01 -3.33523e-01
       H -1.11646e+01 -1.75509e+01 -8.32898e-01
       H -1.11817e+01 -1.83769e+01  4.93679e-01
       O -5.21741e+00 -2.34230e+01 -4.78625e+01
       H -5.16030e+00 -2.43764e+01 -4.77953e+01
       H -5.42368e+00 -2.31825e+01 -4.69612e+01
       O -4.52204e+00 -2.15431e+01 -1.35134e+01
       H -5.18071e+00 -2.08901e+01 -1.31703e+01
       H -3.72452e+00 -2.12983e+01 -1.29701e+01
       O -2.25472e+01 -2.31345e+01 -1.09005e+01
       H -2.20160e+01 -2.26185e+01 -1.02793e+01
       H -2.19964e+01 -2.30513e+01 -1.16906e+01
       O -2.75344e+01 -1.45363e+01 -2.23418e+01
       H -2.67396e+01 -1.50083e+01 -2.26789e+01
       H -2.71836e+01 -1.36527e+01 -2.21199e+01
       O  3.35624e+00 -7.52390e+00 -2.58890e+01
       H  4.15761e+00 -7.53195e+00 -2.63785e+01
       H  3.78647e+00 -7.43055e+00 -2.49461e+01
       O -1.44262e+00 -2.29204e+00  1.51530e+01
       H -9.83680e-01 -2.73603e+00  1.58313e+01
       H -2.32289e+00 -2.42409e+00  1.54872e+01
       O -2.40993e+01 -2.61070e+01  1.09730e+01
       H -2.34409e+01 -2.66731e+01  1.13974e+01
       H -2.47642e+01 -2.62199e+01  1.16065e+01
       O -2.49670e+01 -2.97771e+00 -3.09255e+00
       H -2.51393e+01 -2.18722e+00 -3.67668e+00
       H -2.39640e+01 -2.93619e+00 -2.94724e+00
       O -4.42284e+01 -1.64533e+01 -8.48386e+00
       H -4.42655e+01 -1.57538e+01 -9.18255e+00
       H -4.34763e+01 -1.70323e+01 -8.84076e+00
       O  6.58483e+00 -5.74835e+00  5.23145e+00
       H  7.53560e+00 -5.46007e+00  5.29271e+00
       H  6.17518e+00 -4.97517e+00  5.58868e+00
       O -2.80621e+01 -2.34616e+00 -5.69588e+01
       H -2.85639e+01 -1.68858e+00 -5.72934e+01
       H -2.74753e+01 -2.65901e+00 -5.76573e+01
       O -9.16506e+00 -2.48888e+01 -1.30979e+01
       H -1.01471e+01 -2.48276e+01 -1.29661e+01
       H -9.20339e+00 -2.45307e+01 -1.40000e+01
       O -3.46569e+00 -1.28540e+01 -3.10528e+01
       H -3.16165e+00 -1.19779e+01 -3.07841e+01
       H -3.17569e+00 -1.29696e+01 -3.20049e+01
       O -5.56173e+01 -1.56015e+01  9.10789e-01
       H -5.50991e+01 -1.64443e+01  9.89803e-01
       H -5.56301e+01 -1.54717e+01 -4.77644e-02
       O -1.59275e+00 -7.85763e+00  4.56344e+00
       H -2.41976e+00 -8.38295e+00  4.62668e+00
       H -1.94877e+00 -6.98284e+00  4.54013e+00
       O -1.02315e+01 -7.56017e+00  2.90271e+01
       H -1.09005e+01 -8.27458e+00  2.89459e+01
       H -1.02058e+01 -7.48678e+00  3.00016e+01
       O -1.28105e+01 -3.68323e+01 -4.14555e+01
       H -1.31200e+01 -3.69777e+01 -4.23675e+01
       H -1.34967e+01 -3.62505e+01 -4.10647e+01
       O -1.45109e+01 -1.61256e+01 -8.36604e+00
       H -1.49032e+01 -1.54067e+01 -8.95954e+00
       H -1.50354e+01 -1.59606e+01 -7.56925e+00
       O -1.57709e+01 -1.12142e+01  8.83991e+00
       H -1.51812e+01 -1.15841e+01  8.13368e+00
       H -1.50583e+01 -1.07866e+01  9.34032e+00
       O -1.54884e+01 -5.42636e+00 -6.44135e+00
       H -1.46969e+01 -5.22763e+00 -6.98645e+00
       H -1.56895e+01 -4.62730e+00 -6.03486e+00
       O -3.37332e+01 -1.15861e+00 -1.96305e+00
       H -3.40374e+01 -3.53823e-01 -2.46175e+00
       H -3.35428e+01 -1.72075e+00 -2.67338e+00
       O -1.72942e+01 -1.98457e+01 -3.48952e+01
       H -1.81846e+01 -1.96720e+01 -3.45023e+01
       H -1.72487e+01 -2.07486e+01 -3.47493e+01
       O -1.33646e+01 -8.22644e+00  2.43492e+00
       H -1.26786e+01 -7.62956e+00  2.06176e+00
       H -1.28895e+01 -9.03219e+00  2.34732e+00
       O -7.75828e+00 -3.22517e+01 -1.86829e+00
       H -7.10134e+00 -3.25548e+01 -2.40544e+00
       H -8.49601e+00 -3.28725e+01 -2.14369e+00
       O  1.47091e+00 -5.21545e+01 -7.75758e+00
       H  1.33388e+00 -5.30800e+01 -8.13177e+00
       H  2.20923e+00 -5.18988e+01 -8.40063e+00
       O -4.13771e+00 -3.42659e+00  2.33079e+00
       H -3.45870e+00 -2.70097e+00  2.25055e+00
       H -3.85085e+00 -4.00229e+00  1.61119e+00
       O -2.54836e+01 -2.37396e+01 -3.15886e+00
       H -2.61035e+01 -2.41121e+01 -3.86881e+00
       H -2.49773e+01 -2.32107e+01 -3.73810e+00
       O  9.28781e+00  1.17133e+01 -2.45041e+00
       H  1.00417e+01  1.22217e+01 -2.73358e+00
       H  9.69899e+00  1.09117e+01 -2.05187e+00
       O -6.67282e+00 -2.84881e+01 -1.64784e+01
       H -6.13339e+00 -2.76883e+01 -1.65726e+01
       H -7.57155e+00 -2.80733e+01 -1.64330e+01
       O -1.83197e+01 -2.73449e+01 -1.06439e+01
       H -1.75203e+01 -2.78387e+01 -1.03317e+01
       H -1.89946e+01 -2.81276e+01 -1.06743e+01
       O -2.16553e+01 -2.75801e+01 -1.38121e+01
       H -2.16875e+01 -2.70380e+01 -1.29699e+01
       H -2.19656e+01 -2.69471e+01 -1.44559e+01
       O  1.14363e-01 -7.78890e+00  2.58564e+00
       H  1.08324e+00 -8.08159e+00  2.46362e+00
       H -2.38808e-01 -8.16102e+00  3.45964e+00
       O -9.56465e+00 -1.49387e+01 -1.57833e+01
       H -9.73852e+00 -1.58255e+01 -1.55717e+01
       H -8.68152e+00 -1.50208e+01 -1.61414e+01
       O -1.43907e+01 -2.66056e+01 -1.51653e+01
       H -1.45125e+01 -2.72973e+01 -1.58959e+01
       H -1.38651e+01 -2.71467e+01 -1.45645e+01
       O  2.94337e+00 -1.17506e+01 -1.04395e+01
       H  2.23504e+00 -1.12548e+01 -1.07894e+01
       H  2.38883e+00 -1.24746e+01 -1.01423e+01
       O -9.17958e+00 -2.73423e+01 -1.70305e+01
       H -1.00568e+01 -2.70136e+01 -1.66717e+01
       H -9.45196e+00 -2.82332e+01 -1.73480e+01
       O -2.17925e+01 -1.51815e+01 -2.01868e+01
       H -2.25246e+01 -1.58254e+01 -2.04450e+01
       H -2.19170e+01 -1.50502e+01 -1.92031e+01
       O -2.81252e+01 -2.55135e-03 -4.88896e+00
       H -2.82666e+01 -6.07015e-01 -5.64498e+00
       H -2.81934e+01 -7.22391e-01 -4.20720e+00
       O -1.15762e+01 -2.85276e+00  2.27302e+00
       H -1.10826e+01 -2.05496e+00  2.13218e+00
       H -1.09935e+01 -3.41584e+00  2.79121e+00
       O -2.51018e+01 -4.96415e+00 -9.05835e+00
       H -2.46034e+01 -5.81263e+00 -9.12492e+00
       H -2.54683e+01 -4.84193e+00 -9.96952e+00
       O -1.00048e+00  2.40566e+00 -2.61578e+01
       H -1.35188e+00  1.61015e+00 -2.65462e+01
       H -1.34043e+00  2.39303e+00 -2.52428e+01
       O -2.15331e+01 -2.97723e+00 -1.83874e+00
       H -2.11170e+01 -3.80827e+00 -1.53362e+00
       H -2.11308e+01 -2.74969e+00 -2.67105e+00
       O -2.31706e+01 -1.97955e+01 -5.89864e+00
       H -2.25091e+01 -1.93584e+01 -5.34460e+00
       H -2.38946e+01 -1.99090e+01 -5.19688e+00
       O  5.40565e+00  1.20576e+01  1.01560e+01
       H  6.09700e+00  1.25829e+01  1.06211e+01
       H  4.58176e+00  1.25342e+01  1.04851e+01
       O -1.85166e+01 -1.09530e+01 -1.54691e+00
       H -1.95031e+01 -1.08967e+01 -1.37318e+00
       H -1.85326e+01 -1.02151e+01 -2.05612e+00
       O -6.27878e-01 -1.94207e+01 -3.28129e+01
       H  6.48644e-02 -1.91711e+01 -3.34672e+01
       H -7.43308e-01 -2.03718e+01 -3.29141e+01
       O  1.09824e+00 -7.29918e+00 -4.82539e+00
       H  8.29622e-01 -6.41156e+00 -4.51115e+00
       H  1.54303e+00 -6.99683e+00 -5.62583e+00
       O  5.40931e-02 -1.87176e+01 -1.52552e-01
       H  6.56945e-01 -1.93426e+01 -5.27001e-01
       H  7.31218e-01 -1.82645e+01  4.50395e-01
       O -2.93872e+01 -1.39534e+01 -9.98744e+00
       H -2.87262e+01 -1.36249e+01 -1.05594e+01
       H -2.94047e+01 -1.49294e+01 -1.00859e+01
       O -1.11780e+01 -1.01820e+01 -2.70593e+01
       H -1.17239e+01 -9.87687e+00 -2.62832e+01
       H -1.10285e+01 -1.11145e+01 -2.69015e+01
       O -1.87530e+01 -1.70231e+01 -4.33374e+00
       H -1.88713e+01 -1.79087e+01 -3.91447e+00
       H -1.85053e+01 -1.63986e+01 -3.60059e+00
       O -1.01037e+01 -1.96680e+01 -2.24351e+01
       H -1.07980e+01 -2.03336e+01 -2.24685e+01
       H -9.78973e+00 -1.97418e+01 -2.33383e+01
       O -2.22086e+01  1.17465e+01 -2.49478e+01
       H -2.13373e+01  1.21311e+01 -2.45916e+01
       H -2.28940e+01  1.21997e+01 -2.43580e+01
       O  1.12234e+01 -1.78734e+01 -2.48200e+01
       H  1.20836e+01 -1.74945e+01 -2.49666e+01
       H  1.05966e+01 -1.71662e+01 -2.49147e+01
       O -1.43183e+01 -3.63592e+01 -1.52997e+01
       H -1.34906e+01 -3.66245e+01 -1.49387e+01
       H -1.40921e+01 -3.54704e+01 -1.56217e+01
       O -1.98006e+01 -4.60307e+00  7.99959e+00
       H -1.91999e+01 -5.02890e+00  7.35075e+00
       H -1.92116e+01 -4.03720e+00  8.50031e+00
       O -3.65005e+01 -3.48666e+01 -1.98471e+01
       H -3.55335e+01 -3.50545e+01 -1.99644e+01
       H -3.68636e+01 -3.52198e+01 -2.06852e+01
       O -4.87783e+00 -1.45705e+01 -1.65337e+01
       H -4.62206e+00 -1.53306e+01 -1.70549e+01
       H -5.64188e+00 -1.42706e+01 -1.69718e+01
       O -4.35188e+01 -3.20296e+01 -2.62230e+01
       H -4.33430e+01 -3.19724e+01 -2.52331e+01
       H -4.35855e+01 -3.29540e+01 -2.64363e+01
       O -5.20958e+01 -2.36627e+01 -1.01905e+01
       H -5.26637e+01 -2.29751e+01 -1.05928e+01
       H -5.26682e+01 -2.40156e+01 -9.53282e+00
       O  1.06319e+00 -2.51408e+00  2.18584e+00
       H  6.84904e-01 -3.22690e+00  2.69274e+00
       H  2.29701e-01 -2.12176e+00  1.81814e+00
       O -5.88878e+00 -2.84692e+01 -4.60490e+01
       H -6.21101e+00 -2.88858e+01 -4.68325e+01
       H -5.51331e+00 -2.92536e+01 -4.56305e+01
       O -5.94716e+00 -2.21159e+01 -1.78981e+01
       H -5.57593e+00 -2.12889e+01 -1.81062e+01
       H -5.41951e+00 -2.26952e+01 -1.85310e+01
       O -4.25096e+00 -1.44143e+01  1.74065e+00
       H -3.74096e+00 -1.41231e+01  2.48425e+00
       H -3.55326e+00 -1.44139e+01  1.04088e+00
       O -5.60272e+01 -2.15860e+01 -4.47270e+00
       H -5.56487e+01 -2.10627e+01 -5.19096e+00
       H -5.54996e+01 -2.13960e+01 -3.67341e+00
       O -1.96705e+01 -1.91419e+01 -5.02863e-01
       H -1.96507e+01 -1.81753e+01 -6.48751e-01
       H -1.98076e+01 -1.91673e+01  4.62708e-01
       O -2.76108e+01  2.09303e+01 -1.38272e+01
       H -2.74235e+01  2.18580e+01 -1.40067e+01
       H -2.85383e+01  2.09514e+01 -1.40102e+01
       O  8.58343e+00  2.31759e+00 -4.21171e-01
       H  8.30826e+00  1.83545e+00  3.73811e-01
       H  7.86338e+00  2.06132e+00 -9.49705e-01
       O -1.20850e+01  4.43439e+00  6.46453e+00
       H -1.24741e+01  3.58015e+00  6.48729e+00
       H -1.29008e+01  4.93608e+00  6.28675e+00
       O -2.62552e+01 -1.48486e+01 -6.10937e+00
       H -2.57118e+01 -1.42277e+01 -6.61398e+00
       H -2.65732e+01 -1.42159e+01 -5.40911e+00
       O -4.82824e+01 -2.25606e+01  1.03965e+01
       H -4.82222e+01 -2.17379e+01  1.08923e+01
       H -4.74392e+01 -2.29480e+01  1.06143e+01
       O -9.56734e+00  8.38929e+00 -1.97852e+01
       H -1.04214e+01  7.87913e+00 -1.98323e+01
       H -9.51468e+00  8.80545e+00 -2.06789e+01
       O -1.25356e+01 -2.49618e+01 -3.81925e+01
       H -1.18601e+01 -2.53039e+01 -3.87260e+01
       H -1.25037e+01 -2.54005e+01 -3.73250e+01
       O -8.57380e+00 -2.49047e+01  1.69663e+00
       H -8.17829e+00 -2.54198e+01  2.42330e+00
       H -8.78517e+00 -2.56110e+01  1.06868e+00
       O -1.29739e+01  7.26961e-01 -2.70873e+01
       H -1.25770e+01  1.43004e+00 -2.65538e+01
       H -1.38649e+01  1.15401e+00 -2.72531e+01
       O -1.23273e+01 -1.35632e+00 -1.30194e+01
       H -1.17170e+01 -1.97030e+00 -1.26495e+01
       H -1.31060e+01 -1.91602e+00 -1.30402e+01
       O -1.92203e+00 -8.83692e+00  1.05713e+00
       H -2.19327e+00 -9.73777e+00  1.12454e+00
       H -1.40287e+00 -8.77959e+00  1.80786e+00
       O -3.16176e+01  1.84243e-01 -2.86370e+01
       H -3.07891e+01 -2.30151e-01 -2.85482e+01
       H -3.15599e+01  2.33115e-01 -2.96267e+01
       O -3.82657e+01 -2.17245e+01 -1.02446e+01
       H -3.89219e+01 -2.23902e+01 -1.00014e+01
       H -3.83836e+01 -2.11660e+01 -9.47906e+00
       O -2.54775e+01 -3.04878e+01 -1.18459e+01
       H -2.45524e+01 -3.03663e+01 -1.22635e+01
       H -2.51566e+01 -3.06508e+01 -1.09534e+01
       O -1.59697e+01 -1.26238e+01 -4.60541e+01
       H -1.61856e+01 -1.22229e+01 -4.51453e+01
       H -1.58670e+01 -1.17834e+01 -4.65791e+01
       O -2.05853e+01 -4.68673e+00 -5.80781e+00
       H -1.97991e+01 -5.20894e+00 -6.14065e+00
       H -2.11141e+01 -4.71899e+00 -6.61720e+00
       O -2.97954e+01 -2.55159e+01 -3.71296e+01
       H -2.97164e+01 -2.62612e+01 -3.65603e+01