4
# CELL(abcABC): 1000.00000  1000.00000  1000.00000    90.00000    90.00000    90.00000  Step:           0  Bead:       0 positions{angstrom}  cell{angstrom}
       O -3.15475e+00  1.06050e+00  3.43644e-01
       H -4.01539e+00  8.03019e-01  5.44943e-01
       H -2.39495e+00  4.59968e-01  4.98846e-01
       H -2.89914e+00  1.97419e+00  1.87098e-01
4
# CELL(abcABC): 1000.00000  1000.00000  1000.00000    90.00000    90.00000    90.00000  Step:           1  Bead:       0 positions{angstrom}  cell{angstrom}
       O -3.15279e+00  1.06076e+00  3.43051e-01
       H -4.02868e+00  7.94864e-01  5.50072e-01
       H -2.39549e+00  4.59210e-01  4.99939e-01
       H -2.91642e+00  1.97890e+00  1.90282e-01
4
# CELL(abcABC): 1000.00000  1000.00000  1000.00000    90.00000    90.00000    90.00000  Step:           2  Bead:       0 positions{angstrom}  cell{angstrom}
       O -3.15055e+00  1.06091e+00  3.42396e-01
       H -4.04661e+00  7.85743e-01  5.56860e-01
       H -2.39565e+00  4.58357e-01  5.00939e-01
       H -2.93382e+00  1.98658e+00  1.92891e-01
4
# CELL(abcABC): 1000.00000  1000.00000  1000.00000    90.00000    90.00000    90.00000  Step:           3  Bead:       0 positions{angstrom}  cell{angstrom}
       O -3.14812e+00  1.06095e+00  3.41654e-01
       H -4.06544e+00  7.75104e-01  5.65892e-01
       H -2.39713e+00  4.58674e-01  5.02553e-01
       H -2.95210e+00  1.99620e+00  1.94035e-01
4
# CELL(abcABC): 1000.00000  1000.00000  1000.00000    90.00000    90.00000    90.00000  Step:           4  Bead:       0 positions{angstrom}  cell{angstrom}
       O -3.14576e+00  1.06091e+00  3.41016e-01
       H -4.08316e+00  7.63678e-01  5.73648e-01
       H -2.39868e+00  4.59778e-01  5.03822e-01
       H -2.97037e+00  2.00726e+00  1.95128e-01
4
# CELL(abcABC): 1000.00000  1000.00000  1000.00000    90.00000    90.00000    90.00000  Step:           5  Bead:       0 positions{angstrom}  cell{angstrom}
       O -3.14351e+00  1.06063e+00  3.40471e-01
       H -4.09811e+00  7.53261e-01  5.80399e-01
       H -2.40118e+00  4.62148e-01  5.06332e-01
       H -2.98867e+00  2.01972e+00  1.94519e-01
4
# CELL(abcABC): 1000.00000  1000.00000  1000.00000    90.00000    90.00000    90.00000  Step:           6  Bead:       0 positions{angstrom}  cell{angstrom}
       O -3.14149e+00  1.06036e+00  3.40027e-01
       H -4.10783e+00  7.44516e-01  5.85041e-01
       H -2.40409e+00  4.62854e-01  5.08241e-01
       H -3.00805e+00  2.03206e+00  1.95011e-01
4
# CELL(abcABC): 1000.00000  1000.00000  1000.00000    90.00000    90.00000    90.00000  Step:           7  Bead:       0 positions{angstrom}  cell{angstrom}
       O -3.13996e+00  1.05997e+00  3.39458e-01
       H -4.10996e+00  7.37433e-01  5.89535e-01
       H -2.40649e+00  4.62912e-01  5.11473e-01
       H -3.02776e+00  2.04521e+00  1.96333e-01
4
# CELL(abcABC): 1000.00000  1000.00000  1000.00000    90.00000    90.00000    90.00000  Step:           8  Bead:       0 positions{angstrom}  cell{angstrom}
       O -3.13902e+00  1.05964e+00  3.38995e-01
       H -4.10451e+00  7.32104e-01  5.91815e-01
       H -2.40683e+00  4.61604e-01  5.14707e-01
       H -3.04780e+00  2.05711e+00  1.98164e-01
4
# CELL(abcABC): 1000.00000  1000.00000  1000.00000    90.00000    90.00000    90.00000  Step:           9  Bead:       0 positions{angstrom}  cell{angstrom}
       O -3.13863e+00  1.05948e+00  3.38441e-01
       H -4.09254e+00  7.27591e-01  5.93675e-01
       H -2.40496e+00  4.60038e-01  5.19212e-01
       H -3.06784e+00  2.06568e+00  2.00582e-01
4
# CELL(abcABC): 1000.00000  1000.00000  1000.00000    90.00000    90.00000    90.00000  Step:          10  Bead:       0 positions{angstrom}  cell{angstrom}
       O -3.13871e+00  1.05937e+00  3.38034e-01
       H -4.07448e+00  7.24506e-01  5.93343e-01
       H -2.40191e+00  4.59018e-01  5.23609e-01
       H -3.08766e+00  2.07161e+00  2.02978e-01
4
# CELL(abcABC): 1000.00000  1000.00000  1000.00000    90.00000    90.00000    90.00000  Step:          11  Bead:       0 positions{angstrom}  cell{angstrom}
       O -3.13918e+00  1.05939e+00  3.37780e-01
       H -4.05126e+00  7.23226e-01  5.90527e-01
       H -2.39940e+00  4.57934e-01  5.28114e-01
       H -3.10590e+00  2.07363e+00  2.05323e-01
4
# CELL(abcABC): 1000.00000  1000.00000  1000.00000    90.00000    90.00000    90.00000  Step:          12  Bead:       0 positions{angstrom}  cell{angstrom}
       O -3.14007e+00  1.05961e+00  3.37594e-01
       H -4.02357e+00  7.22297e-01  5.86646e-01
       H -2.39655e+00  4.56207e-01  5.32008e-01
       H -3.12233e+00  2.07272e+00  2.08268e-01
4
# CELL(abcABC): 1000.00000  1000.00000  1000.00000    90.00000    90.00000    90.00000  Step:          13  Bead:       0 positions{angstrom}  cell{angstrom}
       O -3.14115e+00  1.06002e+00  3.37352e-01
       H -3.99518e+00  7.21639e-01  5.82965e-01
       H -2.39234e+00  4.55348e-01  5.36130e-01
       H -3.13785e+00  2.06788e+00  2.11663e-01
4
# CELL(abcABC): 1000.00000  1000.00000  1000.00000    90.00000    90.00000    90.00000  Step:          14  Bead:       0 positions{angstrom}  cell{angstrom}
       O -3.14220e+00  1.06057e+00  3.36994e-01
       H -3.96795e+00  7.19270e-01  5.80580e-01
       H -2.38799e+00  4.56605e-01  5.40268e-01
       H -3.15273e+00  2.06027e+00  2.15590e-01
4
# CELL(abcABC): 1000.00000  1000.00000  1000.00000    90.00000    90.00000    90.00000  Step:          15  Bead:       0 positions{angstrom}  cell{angstrom}
       O -3.14288e+00  1.06118e+00  3.36288e-01
       H -3.94862e+00  7.13665e-01  5.82270e-01
       H -2.38494e+00  4.60344e-01  5.44500e-01
       H -3.16441e+00  2.05244e+00  2.20881e-01
4
# CELL(abcABC): 1000.00000  1000.00000  1000.00000    90.00000    90.00000    90.00000  Step:          16  Bead:       0 positions{angstrom}  cell{angstrom}
       O -3.14313e+00  1.06187e+00  3.35406e-01
       H -3.93654e+00  7.04056e-01  5.86301e-01
       H -2.38288e+00  4.67401e-01  5.48623e-01
       H -3.17454e+00  2.04401e+00  2.26735e-01
4
# CELL(abcABC): 1000.00000  1000.00000  1000.00000    90.00000    90.00000    90.00000  Step:          17  Bead:       0 positions{angstrom}  cell{angstrom}
       O -3.14277e+00  1.06266e+00  3.34324e-01
       H -3.93296e+00  6.90912e-01  5.93562e-01
       H -2.38256e+00  4.77459e-01  5.51597e-01
       H -3.18411e+00  2.03450e+00  2.33664e-01
4
# CELL(abcABC): 1000.00000  1000.00000  1000.00000    90.00000    90.00000    90.00000  Step:          18  Bead:       0 positions{angstrom}  cell{angstrom}
       O -3.14193e+00  1.06338e+00  3.33061e-01
       H -3.93878e+00  6.75012e-01  6.03775e-01
       H -2.38142e+00  4.89657e-01  5.54362e-01
       H -3.19283e+00  2.02673e+00  2.40741e-01
4
# CELL(abcABC): 1000.00000  1000.00000  1000.00000    90.00000    90.00000    90.00000  Step:          19  Bead:       0 positions{angstrom}  cell{angstrom}
       O -3.14090e+00  1.06406e+00  3.31646e-01
       H -3.95013e+00  6.56573e-01  6.16437e-01
       H -2.38081e+00  5.03087e-01  5.56441e-01
       H -3.19838e+00  2.02105e+00  2.48453e-01
4
# CELL(abcABC): 1000.00000  1000.00000  1000.00000    90.00000    90.00000    90.00000  Step:          20  Bead:       0 positions{angstrom}  cell{angstrom}
       O -3.13982e+00  1.06457e+00  3.30216e-01
       H -3.96432e+00  6.37692e-01  6.28632e-01
       H -2.38027e+00  5.17944e-01  5.58909e-01
       H -3.20192e+00  2.01698e+00  2.56496e-01
4
# CELL(abcABC): 1000.00000  1000.00000  1000.00000    90.00000    90.00000    90.00000  Step:          21  Bead:       0 positions{angstrom}  cell{angstrom}
       O -3.13898e+00  1.06478e+00  3.28842e-01
       H -3.97905e+00  6.18888e-01  6.39509e-01
       H -2.37645e+00  5.34119e-01  5.62707e-01
       H -3.20425e+00  2.01627e+00  2.63624e-01
4
# CELL(abcABC): 1000.00000  1000.00000  1000.00000    90.00000    90.00000    90.00000  Step:          22  Bead:       0 positions{angstrom}  cell{angstrom}
       O -3.13857e+00  1.06456e+00  3.27599e-01
       H -3.99270e+00  6.01033e-01  6.50290e-01
       H -2.36822e+00  5.50873e-01  5.65467e-01
       H -3.20542e+00  2.02090e+00  2.69816e-01
4
# CELL(abcABC): 1000.00000  1000.00000  1000.00000    90.00000    90.00000    90.00000  Step:          23  Bead:       0 positions{angstrom}  cell{angstrom}
       O -3.13866e+00  1.06395e+00  3.26618e-01
       H -4.00224e+00  5.86533e-01  6.58791e-01
       H -2.35656e+00  5.68204e-01  5.69270e-01
       H -3.20605e+00  2.02761e+00  2.73093e-01
4
# CELL(abcABC): 1000.00000  1000.00000  1000.00000    90.00000    90.00000    90.00000  Step:          24  Bead:       0 positions{angstrom}  cell{angstrom}
       O -3.13931e+00  1.06290e+00  3.25744e-01
       H -4.00611e+00  5.74516e-01  6.65068e-01
       H -2.34212e+00  5.86642e-01  5.73964e-01
       H -3.20628e+00  2.03791e+00  2.75988e-01
4
# CELL(abcABC): 1000.00000  1000.00000  1000.00000    90.00000    90.00000    90.00000  Step:          25  Bead:       0 positions{angstrom}  cell{angstrom}
       O -3.14045e+00  1.06163e+00  3.24891e-01
       H -4.00437e+00  5.65348e-01  6.69812e-01
       H -2.32616e+00  6.04548e-01  5.79400e-01
       H -3.20601e+00  2.04937e+00  2.79343e-01
4
# CELL(abcABC): 1000.00000  1000.00000  1000.00000    90.00000    90.00000    90.00000  Step:          26  Bead:       0 positions{angstrom}  cell{angstrom}
       O -3.14203e+00  1.06020e+00  3.24129e-01
       H -3.99684e+00  5.59487e-01  6.71495e-01
       H -2.30885e+00  6.22451e-01  5.85026e-01
       H -3.20571e+00  2.06006e+00  2.84142e-01
4
# CELL(abcABC): 1000.00000  1000.00000  1000.00000    90.00000    90.00000    90.00000  Step:          27  Bead:       0 positions{angstrom}  cell{angstrom}
       O -3.14408e+00  1.05857e+00  3.23507e-01
       H -3.98396e+00  5.58406e-01  6.70309e-01
       H -2.29152e+00  6.40015e-01  5.90462e-01
       H -3.20333e+00  2.06939e+00  2.89760e-01
4
# CELL(abcABC): 1000.00000  1000.00000  1000.00000    90.00000    90.00000    90.00000  Step:          28  Bead:       0 positions{angstrom}  cell{angstrom}
       O -3.14632e+00  1.05684e+00  3.22930e-01
       H -3.96740e+00  5.59185e-01  6.67122e-01
       H -2.27471e+00  6.58388e-01  5.96021e-01
       H -3.20115e+00  2.07765e+00  2.96538e-01
4
# CELL(abcABC): 1000.00000  1000.00000  1000.00000    90.00000    90.00000    90.00000  Step:          29  Bead:       0 positions{angstrom}  cell{angstrom}
       O -3.14868e+00  1.05505e+00  3.22460e-01
       H -3.94655e+00  5.62967e-01  6.61185e-01
       H -2.26105e+00  6.77521e-01  6.01175e-01
       H -3.19825e+00  2.08318e+00  3.04784e-01
4
# CELL(abcABC): 1000.00000  1000.00000  1000.00000    90.00000    90.00000    90.00000  Step:          30  Bead:       0 positions{angstrom}  cell{angstrom}
       O -3.15096e+00  1.05322e+00  3.22010e-01
       H -3.92348e+00  5.69345e-01  6.55465e-01
       H -2.25069e+00  6.97395e-01  6.06134e-01
       H -3.19555e+00  2.08600e+00  3.12690e-01
4
# CELL(abcABC): 1000.00000  1000.00000  1000.00000    90.00000    90.00000    90.00000  Step:          31  Bead:       0 positions{angstrom}  cell{angstrom}
       O -3.15309e+00  1.05146e+00  3.21621e-01
       H -3.89933e+00  5.75998e-01  6.50456e-01
       H -2.24335e+00  7.19040e-01  6.09706e-01
       H -3.19316e+00  2.08571e+00  3.20297e-01
4
# CELL(abcABC): 1000.00000  1000.00000  1000.00000    90.00000    90.00000    90.00000  Step:          32  Bead:       0 positions{angstrom}  cell{angstrom}
       O -3.15471e+00  1.05010e+00  3.20984e-01
       H -3.87941e+00  5.79042e-01  6.47895e-01
       H -2.23939e+00  7.42351e-01  6.13669e-01
       H -3.19124e+00  2.08087e+00  3.29014e-01
4
# CELL(abcABC): 1000.00000  1000.00000  1000.00000    90.00000    90.00000    90.00000  Step:          33  Bead:       0 positions{angstrom}  cell{angstrom}
       O -3.15567e+00  1.04930e+00  3.20100e-01
       H -3.86576e+00  5.77968e-01  6.49564e-01
       H -2.23898e+00  7.64718e-01  6.17332e-01
       H -3.19007e+00  2.07221e+00  3.37708e-01
4
# CELL(abcABC): 1000.00000  1000.00000  1000.00000    90.00000    90.00000    90.00000  Step:          34  Bead:       0 positions{angstrom}  cell{angstrom}
       O -3.15577e+00  1.04904e+00  3.19136e-01
       H -3.85877e+00  5.72248e-01  6.54757e-01
       H -2.24396e+00  7.86204e-01  6.20639e-01
       H -3.19060e+00  2.06071e+00  3.44521e-01
4
# CELL(abcABC): 1000.00000  1000.00000  1000.00000    90.00000    90.00000    90.00000  Step:          35  Bead:       0 positions{angstrom}  cell{angstrom}
       O -3.15520e+00  1.04921e+00  3.17988e-01
       H -3.85714e+00  5.61872e-01  6.62901e-01
       H -2.25292e+00  8.07733e-01  6.24174e-01
       H -3.19227e+00  2.04682e+00  3.51059e-01
4
# CELL(abcABC): 1000.00000  1000.00000  1000.00000    90.00000    90.00000    90.00000  Step:          36  Bead:       0 positions{angstrom}  cell{angstrom}
       O -3.15411e+00  1.04968e+00  3.16694e-01
       H -3.86116e+00  5.47651e-01  6.73634e-01
       H -2.26322e+00  8.29120e-01  6.26804e-01
       H -3.19523e+00  2.03214e+00  3.58244e-01
4
# CELL(abcABC): 1000.00000  1000.00000  1000.00000    90.00000    90.00000    90.00000  Step:          37  Bead:       0 positions{angstrom}  cell{angstrom}
       O -3.15275e+00  1.05045e+00  3.15157e-01
       H -3.86836e+00  5.31772e-01  6.88191e-01
       H -2.27284e+00  8.47882e-01  6.29364e-01
       H -3.20001e+00  2.01701e+00  3.65509e-01
4
# CELL(abcABC): 1000.00000  1000.00000  1000.00000    90.00000    90.00000    90.00000  Step:          38  Bead:       0 positions{angstrom}  cell{angstrom}
       O -3.15114e+00  1.05129e+00  3.13695e-01
       H -3.87800e+00  5.14858e-01  7.02409e-01
       H -2.28050e+00  8.62990e-01  6.32567e-01
       H -3.20821e+00  2.00560e+00  3.71310e-01
4
# CELL(abcABC): 1000.00000  1000.00000  1000.00000    90.00000    90.00000    90.00000  Step:          39  Bead:       0 positions{angstrom}  cell{angstrom}
       O -3.14983e+00  1.05214e+00  3.12077e-01
       H -3.88617e+00  4.98123e-01  7.16784e-01
       H -2.28442e+00  8.74002e-01  6.38062e-01
       H -3.21698e+00  1.99769e+00  3.77118e-01
4
# CELL(abcABC): 1000.00000  1000.00000  1000.00000    90.00000    90.00000    90.00000  Step:          40  Bead:       0 positions{angstrom}  cell{angstrom}
       O -3.14884e+00  1.05272e+00  3.10261e-01
       H -3.89183e+00  4.83613e-01  7.30778e-01
       H -2.28395e+00  8.82092e-01  6.46838e-01
       H -3.22750e+00  1.99490e+00  3.83179e-01
4
# CELL(abcABC): 1000.00000  1000.00000  1000.00000    90.00000    90.00000    90.00000  Step:          41  Bead:       0 positions{angstrom}  cell{angstrom}
       O -3.14819e+00  1.05296e+00  3.08418e-01
       H -3.89412e+00  4.72886e-01  7.42257e-01
       H -2.27888e+00  8.87629e-01  6.57554e-01
       H -3.24055e+00  1.99640e+00  3.90233e-01
4
# CELL(abcABC): 1000.00000  1000.00000  1000.00000    90.00000    90.00000    90.00000  Step:          42  Bead:       0 positions{angstrom}  cell{angstrom}
       O -3.14800e+00  1.05297e+00  3.06703e-01
       H -3.89058e+00  4.63923e-01  7.50820e-01
       H -2.27046e+00  8.90619e-01  6.69923e-01
       H -3.25564e+00  2.00211e+00  3.96517e-01
4
# CELL(abcABC): 1000.00000  1000.00000  1000.00000    90.00000    90.00000    90.00000  Step:          43  Bead:       0 positions{angstrom}  cell{angstrom}
       O -3.14806e+00  1.05260e+00  3.05137e-01
       H -3.88266e+00  4.59649e-01  7.56166e-01
       H -2.26023e+00  8.92833e-01  6.83223e-01
       H -3.27272e+00  2.01008e+00  4.02730e-01
4
# CELL(abcABC): 1000.00000  1000.00000  1000.00000    90.00000    90.00000    90.00000  Step:          44  Bead:       0 positions{angstrom}  cell{angstrom}
       O -3.14829e+00  1.05200e+00  3.03761e-01
       H -3.87000e+00  4.58505e-01  7.57977e-01
       H -2.24981e+00  8.93043e-01  6.96063e-01
       H -3.29213e+00  2.02059e+00  4.09929e-01
4
# CELL(abcABC): 1000.00000  1000.00000  1000.00000    90.00000    90.00000    90.00000  Step:          45  Bead:       0 positions{angstrom}  cell{angstrom}
       O -3.14852e+00  1.05125e+00  3.02677e-01
       H -3.85385e+00  4.60935e-01  7.56383e-01
       H -2.24006e+00  8.91519e-01  7.07414e-01
       H -3.31448e+00  2.03159e+00  4.17368e-01
4
# CELL(abcABC): 1000.00000  1000.00000  1000.00000    90.00000    90.00000    90.00000  Step:          46  Bead:       0 positions{angstrom}  cell{angstrom}
       O -3.14877e+00  1.05046e+00  3.01886e-01
       H -3.83455e+00  4.66749e-01  7.52016e-01
       H -2.23298e+00  8.88489e-01  7.16981e-01
       H -3.33680e+00  2.04132e+00  4.24731e-01
4
# CELL(abcABC): 1000.00000  1000.00000  1000.00000    90.00000    90.00000    90.00000  Step:          47  Bead:       0 positions{angstrom}  cell{angstrom}
       O -3.14890e+00  1.04962e+00  3.01478e-01
       H -3.81317e+00  4.74024e-01  7.46234e-01
       H -2.22920e+00  8.85407e-01  7.23859e-01
       H -3.36003e+00  2.05048e+00  4.30111e-01
4
# CELL(abcABC): 1000.00000  1000.00000  1000.00000    90.00000    90.00000    90.00000  Step:          48  Bead:       0 positions{angstrom}  cell{angstrom}
       O -3.14879e+00  1.04905e+00  3.01291e-01
       H -3.79081e+00  4.80606e-01  7.40008e-01
       H -2.22932e+00  8.82972e-01  7.27826e-01
       H -3.38391e+00  2.05532e+00  4.35333e-01
4
# CELL(abcABC): 1000.00000  1000.00000  1000.00000    90.00000    90.00000    90.00000  Step:          49  Bead:       0 positions{angstrom}  cell{angstrom}
       O -3.14843e+00  1.04880e+00  3.01169e-01
       H -3.76972e+00  4.85410e-01  7.34713e-01
       H -2.23223e+00  8.80572e-01  7.29563e-01
       H -3.40781e+00  2.05688e+00  4.40833e-01
4
# CELL(abcABC): 1000.00000  1000.00000  1000.00000    90.00000    90.00000    90.00000  Step:          50  Bead:       0 positions{angstrom}  cell{angstrom}
       O -3.14753e+00  1.04905e+00  3.01259e-01
       H -3.75210e+00  4.87350e-01  7.30582e-01
       H -2.24063e+00  8.77990e-01  7.28997e-01
       H -3.43140e+00  2.05354e+00  4.44097e-01
4
# CELL(abcABC): 1000.00000  1000.00000  1000.00000    90.00000    90.00000    90.00000  Step:          51  Bead:       0 positions{angstrom}  cell{angstrom}
       O -3.14623e+00  1.04981e+00  3.01412e-01
       H -3.73949e+00  4.84513e-01  7.28318e-01
       H -2.25246e+00  8.76439e-01  7.26081e-01
       H -3.45283e+00  2.04593e+00  4.46855e-01
4
# CELL(abcABC): 1000.00000  1000.00000  1000.00000    90.00000    90.00000    90.00000  Step:          52  Bead:       0 positions{angstrom}  cell{angstrom}
       O -3.14454e+00  1.05120e+00  3.01676e-01
       H -3.73269e+00  4.76381e-01  7.28707e-01
       H -2.26657e+00  8.75154e-01  7.20220e-01
       H -3.47231e+00  2.03324e+00  4.48131e-01
4
# CELL(abcABC): 1000.00000  1000.00000  1000.00000    90.00000    90.00000    90.00000  Step:          53  Bead:       0 positions{angstrom}  cell{angstrom}
       O -3.14263e+00  1.05306e+00  3.01883e-01
       H -3.73050e+00  4.63902e-01  7.30497e-01
       H -2.28147e+00  8.76158e-01  7.13827e-01
       H -3.48995e+00  2.01517e+00  4.49446e-01
4
# CELL(abcABC): 1000.00000  1000.00000  1000.00000    90.00000    90.00000    90.00000  Step:          54  Bead:       0 positions{angstrom}  cell{angstrom}
       O -3.14062e+00  1.05540e+00  3.01786e-01
       H -3.73266e+00  4.46558e-01  7.34902e-01
       H -2.29542e+00  8.78690e-01  7.07904e-01
       H -3.50563e+00  1.99285e+00  4.52500e-01
4
# CELL(abcABC): 1000.00000  1000.00000  1000.00000    90.00000    90.00000    90.00000  Step:          55  Bead:       0 positions{angstrom}  cell{angstrom}
       O -3.13881e+00  1.05799e+00  3.01609e-01
       H -3.73809e+00  4.26913e-01  7.40446e-01
       H -2.30594e+00  8.82014e-01  7.03312e-01
       H -3.51845e+00  1.96816e+00  4.54373e-01
4
# CELL(abcABC): 1000.00000  1000.00000  1000.00000    90.00000    90.00000    90.00000  Step:          56  Bead:       0 positions{angstrom}  cell{angstrom}
       O -3.13741e+00  1.06056e+00  3.01386e-01
       H -3.74229e+00  4.06818e-01  7.45732e-01
       H -2.31167e+00  8.85619e-01  6.99127e-01
       H -3.53082e+00  1.94383e+00  4.56808e-01
4
# CELL(abcABC): 1000.00000  1000.00000  1000.00000    90.00000    90.00000    90.00000  Step:          57  Bead:       0 positions{angstrom}  cell{angstrom}
       O -3.13646e+00  1.06291e+00  3.01076e-01
       H -3.74434e+00  3.88070e-01  7.49698e-01
       H -2.31240e+00  8.89227e-01  6.98026e-01
       H -3.54299e+00  1.92166e+00  4.58862e-01
4
# CELL(abcABC): 1000.00000  1000.00000  1000.00000    90.00000    90.00000    90.00000  Step:          58  Bead:       0 positions{angstrom}  cell{angstrom}
       O -3.13612e+00  1.06494e+00  3.00746e-01
       H -3.74360e+00  3.70469e-01  7.50960e-01
       H -2.30641e+00  8.93348e-01  6.99881e-01
       H -3.55522e+00  1.90293e+00  4.60987e-01
4
# CELL(abcABC): 1000.00000  1000.00000  1000.00000    90.00000    90.00000    90.00000  Step:          59  Bead:       0 positions{angstrom}  cell{angstrom}
       O -3.13632e+00  1.06640e+00  3.00311e-01
       H -3.73944e+00  3.55688e-01  7.49324e-01
       H -2.29450e+00  8.98737e-01  7.05395e-01
       H -3.56812e+00  1.88914e+00  4.64008e-01
4
# CELL(abcABC): 1000.00000  1000.00000  1000.00000    90.00000    90.00000    90.00000  Step:          60  Bead:       0 positions{angstrom}  cell{angstrom}
       O -3.13695e+00  1.06728e+00  2.99984e-01
       H -3.73341e+00  3.43714e-01  7.44573e-01
       H -2.27783e+00  9.04650e-01  7.10720e-01
       H -3.58085e+00  1.88119e+00  4.68629e-01
4
# CELL(abcABC): 1000.00000  1000.00000  1000.00000    90.00000    90.00000    90.00000  Step:          61  Bead:       0 positions{angstrom}  cell{angstrom}
       O -3.13794e+00  1.06754e+00  2.99802e-01
       H -3.72340e+00  3.34603e-01  7.36355e-01
       H -2.25795e+00  9.11785e-01  7.15249e-01
       H -3.59489e+00  1.87906e+00  4.75209e-01
4
# CELL(abcABC): 1000.00000  1000.00000  1000.00000    90.00000    90.00000    90.00000  Step:          62  Bead:       0 positions{angstrom}  cell{angstrom}
       O -3.13902e+00  1.06725e+00  2.99922e-01
       H -3.71124e+00  3.27950e-01  7.24671e-01
       H -2.23942e+00  9.20103e-01  7.18835e-01
       H -3.60853e+00  1.88191e+00  4.81400e-01
4
# CELL(abcABC): 1000.00000  1000.00000  1000.00000    90.00000    90.00000    90.00000  Step:          63  Bead:       0 positions{angstrom}  cell{angstrom}
       O -3.14008e+00  1.06633e+00  3.00095e-01
       H -3.69618e+00  3.25219e-01  7.10803e-01
       H -2.22315e+00  9.29416e-01  7.21078e-01
       H -3.62295e+00  1.89005e+00  4.90279e-01
4
# CELL(abcABC): 1000.00000  1000.00000  1000.00000    90.00000    90.00000    90.00000  Step:          64  Bead:       0 positions{angstrom}  cell{angstrom}
       O -3.14115e+00  1.06501e+00  3.00452e-01
       H -3.67803e+00  3.25034e-01  6.95834e-01
       H -2.20985e+00  9.40209e-01  7.21645e-01
       H -3.63753e+00  1.90042e+00  4.99018e-01
4
# CELL(abcABC): 1000.00000  1000.00000  1000.00000    90.00000    90.00000    90.00000  Step:          65  Bead:       0 positions{angstrom}  cell{angstrom}
       O -3.14210e+00  1.06342e+00  3.01052e-01
       H -3.65977e+00  3.26649e-01  6.78438e-01
       H -2.20016e+00  9.53880e-01  7.19994e-01
       H -3.65028e+00  1.91037e+00  5.08532e-01
4
# CELL(abcABC): 1000.00000  1000.00000  1000.00000    90.00000    90.00000    90.00000  Step:          66  Bead:       0 positions{angstrom}  cell{angstrom}
       O -3.14290e+00  1.06171e+00  3.01755e-01
       H -3.64195e+00  3.30569e-01  6.61292e-01
       H -2.19516e+00  9.67566e-01  7.16424e-01
       H -3.66049e+00  1.91985e+00  5.18085e-01
4
# CELL(abcABC): 1000.00000  1000.00000  1000.00000    90.00000    90.00000    90.00000  Step:          67  Bead:       0 positions{angstrom}  cell{angstrom}
       O -3.14337e+00  1.06027e+00  3.02603e-01
       H -3.62566e+00  3.31542e-01  6.43931e-01
       H -2.19465e+00  9.82651e-01  7.11126e-01
       H -3.66981e+00  1.92665e+00  5.27293e-01
4
# CELL(abcABC): 1000.00000  1000.00000  1000.00000    90.00000    90.00000    90.00000  Step:          68  Bead:       0 positions{angstrom}  cell{angstrom}
       O -3.14356e+00  1.05916e+00  3.03694e-01
       H -3.61179e+00  3.28287e-01  6.27765e-01
       H -2.19864e+00  9.98927e-01  7.02114e-01
       H -3.67664e+00  1.93116e+00  5.35148e-01
4
# CELL(abcABC): 1000.00000  1000.00000  1000.00000    90.00000    90.00000    90.00000  Step:          69  Bead:       0 positions{angstrom}  cell{angstrom}
       O -3.14337e+00  1.05870e+00  3.04659e-01
       H -3.60225e+00  3.18052e-01  6.15326e-01
       H -2.20756e+00  1.01619e+00  6.92170e-01
       H -3.68035e+00  1.93146e+00  5.42216e-01
4
# CELL(abcABC): 1000.00000  1000.00000  1000.00000    90.00000    90.00000    90.00000  Step:          70  Bead:       0 positions{angstrom}  cell{angstrom}
       O -3.14307e+00  1.05868e+00  3.05655e-01
       H -3.59630e+00  3.02660e-01  6.04095e-01
       H -2.21947e+00  1.03491e+00  6.80570e-01
       H -3.67918e+00  1.92847e+00  5.49231e-01
4
# CELL(abcABC): 1000.00000  1000.00000  1000.00000    90.00000    90.00000    90.00000  Step:          71  Bead:       0 positions{angstrom}  cell{angstrom}
       O -3.14257e+00  1.05928e+00  3.06732e-01
       H -3.59445e+00  2.81086e-01  5.93268e-01
       H -2.23353e+00  1.05357e+00  6.67769e-01
       H -3.67485e+00  1.92185e+00  5.55771e-01
4
# CELL(abcABC): 1000.00000  1000.00000  1000.00000    90.00000    90.00000    90.00000  Step:          72  Bead:       0 positions{angstrom}  cell{angstrom}
       O -3.14213e+00  1.06021e+00  3.07760e-01
       H -3.59454e+00  2.56370e-01  5.83845e-01
       H -2.24724e+00  1.07263e+00  6.55741e-01
       H -3.66803e+00  1.91274e+00  5.60903e-01
4
# CELL(abcABC): 1000.00000  1000.00000  1000.00000    90.00000    90.00000    90.00000  Step:          73  Bead:       0 positions{angstrom}  cell{angstrom}
       O -3.14184e+00  1.06145e+00  3.08843e-01
       H -3.59572e+00  2.30182e-01  5.74702e-01
       H -2.25877e+00  1.09210e+00  6.44589e-01
       H -3.65984e+00  1.89984e+00  5.64004e-01
4
# CELL(abcABC): 1000.00000  1000.00000  1000.00000    90.00000    90.00000    90.00000  Step:          74  Bead:       0 positions{angstrom}  cell{angstrom}
       O -3.14194e+00  1.06272e+00  3.10048e-01
       H -3.59628e+00  2.04874e-01  5.64091e-01
       H -2.26624e+00  1.11148e+00  6.33857e-01
       H -3.65037e+00  1.88563e+00  5.66220e-01
4
# CELL(abcABC): 1000.00000  1000.00000  1000.00000    90.00000    90.00000    90.00000  Step:          75  Bead:       0 positions{angstrom}  cell{angstrom}
       O -3.14230e+00  1.06394e+00  3.11191e-01
       H -3.59601e+00  1.81163e-01  5.52366e-01
       H -2.26882e+00  1.13001e+00  6.25974e-01
       H -3.64226e+00  1.87147e+00  5.67679e-01
4
# CELL(abcABC): 1000.00000  1000.00000  1000.00000    90.00000    90.00000    90.00000  Step:          76  Bead:       0 positions{angstrom}  cell{angstrom}
       O -3.14319e+00  1.06478e+00  3.12126e-01
       H -3.59281e+00  1.61737e-01  5.40950e-01
       H -2.26551e+00  1.14816e+00  6.20455e-01
       H -3.63459e+00  1.85934e+00  5.69780e-01
4
# CELL(abcABC): 1000.00000  1000.00000  1000.00000    90.00000    90.00000    90.00000  Step:          77  Bead:       0 positions{angstrom}  cell{angstrom}
       O -3.14438e+00  1.06522e+00  3.12928e-01
       H -3.58715e+00  1.48240e-01  5.28735e-01
       H -2.25713e+00  1.16600e+00  6.17599e-01
       H -3.62986e+00  1.84808e+00  5.72125e-01
4
# CELL(abcABC): 1000.00000  1000.00000  1000.00000    90.00000    90.00000    90.00000  Step:          78  Bead:       0 positions{angstrom}  cell{angstrom}
       O -3.14574e+00  1.06521e+00  3.13799e-01
       H -3.57995e+00  1.39571e-01  5.14867e-01
       H -2.24372e+00  1.18355e+00  6.16030e-01
       H -3.62883e+00  1.83932e+00  5.73732e-01
4
# CELL(abcABC): 1000.00000  1000.00000  1000.00000    90.00000    90.00000    90.00000  Step:          79  Bead:       0 positions{angstrom}  cell{angstrom}
       O -3.14723e+00  1.06482e+00  3.14561e-01
       H -3.57074e+00  1.37034e-01  5.01714e-01
       H -2.22674e+00  1.19894e+00  6.15088e-01
       H -3.63138e+00  1.83262e+00  5.75731e-01
4
# CELL(abcABC): 1000.00000  1000.00000  1000.00000    90.00000    90.00000    90.00000  Step:          80  Bead:       0 positions{angstrom}  cell{angstrom}
       O -3.14870e+00  1.06400e+00  3.15161e-01
       H -3.55869e+00  1.40078e-01  4.88243e-01
       H -2.20919e+00  1.21236e+00  6.15281e-01
       H -3.63756e+00  1.82919e+00  5.79487e-01
4
# CELL(abcABC): 1000.00000  1000.00000  1000.00000    90.00000    90.00000    90.00000  Step:          81  Bead:       0 positions{angstrom}  cell{angstrom}
       O -3.14999e+00  1.06268e+00  3.15792e-01
       H -3.54254e+00  1.48507e-01  4.74112e-01
       H -2.19402e+00  1.22558e+00  6.15113e-01
       H -3.64850e+00  1.82847e+00  5.83771e-01
4
# CELL(abcABC): 1000.00000  1000.00000  1000.00000    90.00000    90.00000    90.00000  Step:          82  Bead:       0 positions{angstrom}  cell{angstrom}
       O -3.15090e+00  1.06130e+00  3.16317e-01
       H -3.52438e+00  1.59445e-01  4.61064e-01
       H -2.18187e+00  1.23528e+00  6.13852e-01
       H -3.66438e+00  1.82982e+00  5.89737e-01
4
# CELL(abcABC): 1000.00000  1000.00000  1000.00000    90.00000    90.00000    90.00000  Step:          83  Bead:       0 positions{angstrom}  cell{angstrom}
       O -3.15140e+00  1.05985e+00  3.16854e-01
       H -3.50568e+00  1.71992e-01  4.49133e-01
       H -2.17423e+00  1.24288e+00  6.11245e-01
       H -3.68278e+00  1.83264e+00  5.95750e-01
4
# CELL(abcABC): 1000.00000  1000.00000  1000.00000    90.00000    90.00000    90.00000  Step:          84  Bead:       0 positions{angstrom}  cell{angstrom}
       O -3.15139e+00  1.05864e+00  3.17450e-01
       H -3.48640e+00  1.82625e-01  4.37238e-01
       H -2.17279e+00  1.24816e+00  6.06990e-01
       H -3.70367e+00  1.83591e+00  6.02440e-01
4
# CELL(abcABC): 1000.00000  1000.00000  1000.00000    90.00000    90.00000    90.00000  Step:          85  Bead:       0 positions{angstrom}  cell{angstrom}