14
# CELL(abcABC): 1000.00000  1000.00000  1000.00000    90.00000    90.00000    90.00000  Step:          94  Bead:       0 positions{angstrom}  cell{angstrom}
       C -6.50899e-01  6.43535e-01 -1.38352e-03
       C  4.08255e-01 -2.29187e-01  7.01352e-01
       C -1.89420e+00 -1.19190e-01 -4.14837e-01
       C -9.03706e-01  1.99903e+00  6.84433e-01
       H -1.47551e+00  1.81356e+00  1.60373e+00
       H -1.52360e+00  2.64153e+00  8.70001e-02
       H -1.35098e-02  2.53770e+00  9.21214e-01
       H -1.69167e+00 -9.73511e-01 -1.09084e+00
       H -2.64724e+00  4.53351e-01 -8.92272e-01
       H -2.43338e+00 -5.88260e-01  4.25674e-01
       H  1.43511e+00  1.35479e-01  7.27804e-01
       H  4.62145e-01 -1.18987e+00  2.07336e-01
       H  4.09747e-02 -3.97892e-01  1.74113e+00
       H -8.97825e-02  7.08515e-01 -9.87615e-01
