4
# CELL(abcABC): 1000.00000  1000.00000  1000.00000    90.00000    90.00000    90.00000  Step:         992  Bead:       0 positions{angstrom}  cell{angstrom}
       O -3.11886e+00  1.07137e+00  3.55910e-01
       H -3.08121e+00  1.31708e-01  5.05403e-01
       H -3.57972e+00  1.51956e+00  1.08709e+00
       H -3.21808e+00  1.41282e+00 -5.56327e-01
