6
# CELL(abcABC): 1000.00000  1000.00000  1000.00000    90.00000    90.00000    90.00000  Step:         462  Bead:       0 positions{angstrom}  cell{angstrom}
       C -7.51924e-01  3.01037e+00 -6.17441e-01
       H -1.32022e+00  3.55197e+00 -1.31853e+00
       H  1.62492e-01  3.55529e+00 -4.39722e-01
       H -5.24298e-01  2.02821e+00 -1.01797e+00
       O -1.51915e+00  2.96899e+00  5.27617e-01
       H -1.75386e+00  2.70579e+00  1.44494e+00
