4
# CELL(abcABC): 1000.00000  1000.00000  1000.00000    90.00000    90.00000    90.00000  Step:           0  Bead:       0 positions{angstrom}  cell{angstrom}
       O -3.15743e+00  1.07473e+00  3.65031e-01
       H -3.91485e+00  5.11363e-01  3.30921e-01
       H -2.44477e+00  6.79714e-01  9.00040e-01
       H -2.90722e+00  1.82006e+00 -3.39571e-01
4
# CELL(abcABC): 1000.00000  1000.00000  1000.00000    90.00000    90.00000    90.00000  Step:           1  Bead:       0 positions{angstrom}  cell{angstrom}
       O -3.15560e+00  1.07506e+00  3.64487e-01
       H -3.92587e+00  5.03487e-01  3.35119e-01
       H -2.44525e+00  6.79215e-01  9.00879e-01
       H -2.92474e+00  1.82314e+00 -3.35973e-01
4
# CELL(abcABC): 1000.00000  1000.00000  1000.00000    90.00000    90.00000    90.00000  Step:           2  Bead:       0 positions{angstrom}  cell{angstrom}
       O -3.15369e+00  1.07538e+00  3.63942e-01
       H -3.93802e+00  4.95728e-01  3.39832e-01
       H -2.44531e+00  6.79090e-01  9.01116e-01
       H -2.94289e+00  1.82601e+00 -3.32273e-01
4
# CELL(abcABC): 1000.00000  1000.00000  1000.00000    90.00000    90.00000    90.00000  Step:           3  Bead:       0 positions{angstrom}  cell{angstrom}
       O -3.15169e+00  1.07565e+00  3.63335e-01
       H -3.94897e+00  4.87875e-01  3.46431e-01
       H -2.44667e+00  6.80537e-01  9.01467e-01
       H -2.96237e+00  1.82816e+00 -3.29580e-01
4
# CELL(abcABC): 1000.00000  1000.00000  1000.00000    90.00000    90.00000    90.00000  Step:           4  Bead:       0 positions{angstrom}  cell{angstrom}
       O -3.14976e+00  1.07582e+00  3.62825e-01
       H -3.95812e+00  4.80866e-01  3.52098e-01
       H -2.44818e+00  6.83165e-01  9.01048e-01
       H -2.98223e+00  1.82982e+00 -3.26733e-01
4
# CELL(abcABC): 1000.00000  1000.00000  1000.00000    90.00000    90.00000    90.00000  Step:           5  Bead:       0 positions{angstrom}  cell{angstrom}
       O -3.14790e+00  1.07568e+00  3.62372e-01
       H -3.96493e+00  4.76624e-01  3.57673e-01
       H -2.45075e+00  6.87447e-01  9.01582e-01
       H -3.00241e+00  1.83192e+00 -3.25663e-01
4
# CELL(abcABC): 1000.00000  1000.00000  1000.00000    90.00000    90.00000    90.00000  Step:           6  Bead:       0 positions{angstrom}  cell{angstrom}
       O -3.14617e+00  1.07541e+00  3.61962e-01
       H -3.96782e+00  4.75821e-01  3.62483e-01
       H -2.45392e+00  6.90502e-01  9.01410e-01
       H -3.02385e+00  1.83406e+00 -3.23785e-01
4
# CELL(abcABC): 1000.00000  1000.00000  1000.00000    90.00000    90.00000    90.00000  Step:           7  Bead:       0 positions{angstrom}  cell{angstrom}
       O -3.14478e+00  1.07481e+00  3.61347e-01
       H -3.96508e+00  4.78330e-01  3.68757e-01
       H -2.45675e+00  6.93332e-01  9.02683e-01
       H -3.04577e+00  1.83817e+00 -3.21573e-01
4
# CELL(abcABC): 1000.00000  1000.00000  1000.00000    90.00000    90.00000    90.00000  Step:           8  Bead:       0 positions{angstrom}  cell{angstrom}
       O -3.14380e+00  1.07402e+00  3.60754e-01
       H -3.95735e+00  4.83943e-01  3.74537e-01
       H -2.45766e+00  6.95185e-01  9.04232e-01
       H -3.06817e+00  1.84327e+00 -3.19493e-01
4
# CELL(abcABC): 1000.00000  1000.00000  1000.00000    90.00000    90.00000    90.00000  Step:           9  Bead:       0 positions{angstrom}  cell{angstrom}
       O -3.14316e+00  1.07314e+00  3.59987e-01
       H -3.94617e+00  4.91230e-01  3.81599e-01
       H -2.45643e+00  6.97024e-01  9.07384e-01
       H -3.09077e+00  1.84806e+00 -3.17534e-01
4
# CELL(abcABC): 1000.00000  1000.00000  1000.00000    90.00000    90.00000    90.00000  Step:          10  Bead:       0 positions{angstrom}  cell{angstrom}
       O -3.14275e+00  1.07207e+00  3.59298e-01
       H -3.93246e+00  5.00163e-01  3.88046e-01
       H -2.45398e+00  6.99456e-01  9.10667e-01
       H -3.11344e+00  1.85375e+00 -3.16317e-01
4
# CELL(abcABC): 1000.00000  1000.00000  1000.00000    90.00000    90.00000    90.00000  Step:          11  Bead:       0 positions{angstrom}  cell{angstrom}
       O -3.14247e+00  1.07094e+00  3.58709e-01
       H -3.91747e+00  5.10366e-01  3.93356e-01
       H -2.45196e+00  7.01642e-01  9.14175e-01
       H -3.13491e+00  1.85928e+00 -3.15789e-01
4
# CELL(abcABC): 1000.00000  1000.00000  1000.00000    90.00000    90.00000    90.00000  Step:          12  Bead:       0 positions{angstrom}  cell{angstrom}
       O -3.14234e+00  1.06990e+00  3.58156e-01
       H -3.90193e+00  5.19594e-01  3.98574e-01
       H -2.44940e+00  7.02768e-01  9.17091e-01
       H -3.15508e+00  1.86552e+00 -3.15152e-01
4
# CELL(abcABC): 1000.00000  1000.00000  1000.00000    90.00000    90.00000    90.00000  Step:          13  Bead:       0 positions{angstrom}  cell{angstrom}
       O -3.14216e+00  1.06899e+00  3.57546e-01
       H -3.88914e+00  5.27108e-01  4.04407e-01
       H -2.44516e+00  7.04074e-01  9.20151e-01
       H -3.17488e+00  1.87109e+00 -3.14364e-01
4
# CELL(abcABC): 1000.00000  1000.00000  1000.00000    90.00000    90.00000    90.00000  Step:          14  Bead:       0 positions{angstrom}  cell{angstrom}
       O -3.14181e+00  1.06827e+00  3.56861e-01
       H -3.87967e+00  5.30687e-01  4.11243e-01
       H -2.44043e+00  7.06540e-01  9.22977e-01
       H -3.19467e+00  1.87651e+00 -3.13140e-01
4
# CELL(abcABC): 1000.00000  1000.00000  1000.00000    90.00000    90.00000    90.00000  Step:          15  Bead:       0 positions{angstrom}  cell{angstrom}
       O -3.14106e+00  1.06769e+00  3.55915e-01
       H -3.87819e+00  5.29176e-01  4.21043e-01
       H -2.43665e+00  7.10334e-01  9.25484e-01
       H -3.21189e+00  1.88341e+00 -3.10439e-01
4
# CELL(abcABC): 1000.00000  1000.00000  1000.00000    90.00000    90.00000    90.00000  Step:          16  Bead:       0 positions{angstrom}  cell{angstrom}
       O -3.14001e+00  1.06727e+00  3.54918e-01
       H -3.88160e+00  5.22837e-01  4.31438e-01
       H -2.43365e+00  7.16207e-01  9.27358e-01
       H -3.22818e+00  1.89045e+00 -3.06872e-01
4
# CELL(abcABC): 1000.00000  1000.00000  1000.00000    90.00000    90.00000    90.00000  Step:          17  Bead:       0 positions{angstrom}  cell{angstrom}
       O -3.13859e+00  1.06703e+00  3.53859e-01
       H -3.88912e+00  5.13350e-01  4.42969e-01
       H -2.43235e+00  7.23867e-01  9.27512e-01
       H -3.24447e+00  1.89608e+00 -3.01761e-01
4
# CELL(abcABC): 1000.00000  1000.00000  1000.00000    90.00000    90.00000    90.00000  Step:          18  Bead:       0 positions{angstrom}  cell{angstrom}
       O -3.13698e+00  1.06680e+00  3.52741e-01
       H -3.90067e+00  5.02431e-01  4.55441e-01
       H -2.43044e+00  7.32598e-01  9.26955e-01
       H -3.26034e+00  1.90192e+00 -2.95919e-01
4
# CELL(abcABC): 1000.00000  1000.00000  1000.00000    90.00000    90.00000    90.00000  Step:          19  Bead:       0 positions{angstrom}  cell{angstrom}
       O -3.13546e+00  1.06663e+00  3.51552e-01
       H -3.91265e+00  4.90709e-01  4.68872e-01
       H -2.42956e+00  7.41701e-01  9.25264e-01
       H -3.27338e+00  1.90730e+00 -2.88781e-01
4
# CELL(abcABC): 1000.00000  1000.00000  1000.00000    90.00000    90.00000    90.00000  Step:          20  Bead:       0 positions{angstrom}  cell{angstrom}
       O -3.13409e+00  1.06644e+00  3.50376e-01
       H -3.92336e+00  4.80226e-01  4.81057e-01
       H -2.42949e+00  7.51646e-01  9.23615e-01
       H -3.28455e+00  1.91091e+00 -2.80652e-01
4
# CELL(abcABC): 1000.00000  1000.00000  1000.00000    90.00000    90.00000    90.00000  Step:          21  Bead:       0 positions{angstrom}  cell{angstrom}
       O -3.13308e+00  1.06612e+00  3.49240e-01
       H -3.93171e+00  4.71180e-01  4.91842e-01
       H -2.42718e+00  7.62670e-01  9.23055e-01
       H -3.29453e+00  1.91394e+00 -2.72846e-01
4
# CELL(abcABC): 1000.00000  1000.00000  1000.00000    90.00000    90.00000    90.00000  Step:          22  Bead:       0 positions{angstrom}  cell{angstrom}
       O -3.13252e+00  1.06556e+00  3.48188e-01
       H -3.93725e+00  4.64022e-01  5.03042e-01
       H -2.42177e+00  7.74337e-01  9.21201e-01
       H -3.30320e+00  1.91826e+00 -2.65496e-01
4
# CELL(abcABC): 1000.00000  1000.00000  1000.00000    90.00000    90.00000    90.00000  Step:          23  Bead:       0 positions{angstrom}  cell{angstrom}
       O -3.13245e+00  1.06481e+00  3.47332e-01
       H -3.93793e+00  4.60717e-01  5.12928e-01
       H -2.41431e+00  7.86798e-01  9.20077e-01
       H -3.31107e+00  1.92114e+00 -2.60679e-01
4
# CELL(abcABC): 1000.00000  1000.00000  1000.00000    90.00000    90.00000    90.00000  Step:          24  Bead:       0 positions{angstrom}  cell{angstrom}
       O -3.13287e+00  1.06375e+00  3.46512e-01
       H -3.93307e+00  4.59920e-01  5.21862e-01
       H -2.40541e+00  8.00607e-01  9.19417e-01
       H -3.31816e+00  1.92488e+00 -2.55935e-01
4
# CELL(abcABC): 1000.00000  1000.00000  1000.00000    90.00000    90.00000    90.00000  Step:          25  Bead:       0 positions{angstrom}  cell{angstrom}
       O -3.13368e+00  1.06260e+00  3.45640e-01
       H -3.92351e+00  4.61478e-01  5.30724e-01
       H -2.39611e+00  8.14052e-01  9.18932e-01
       H -3.32429e+00  1.92821e+00 -2.50471e-01
4
# CELL(abcABC): 1000.00000  1000.00000  1000.00000    90.00000    90.00000    90.00000  Step:          26  Bead:       0 positions{angstrom}  cell{angstrom}
       O -3.13481e+00  1.06137e+00  3.44791e-01
       H -3.90981e+00  4.65278e-01  5.38086e-01
       H -2.38620e+00  8.27507e-01  9.17937e-01
       H -3.32984e+00  1.93040e+00 -2.43361e-01
4
# CELL(abcABC): 1000.00000  1000.00000  1000.00000    90.00000    90.00000    90.00000  Step:          27  Bead:       0 positions{angstrom}  cell{angstrom}
       O -3.13629e+00  1.06003e+00  3.44025e-01
       H -3.89319e+00  4.72146e-01  5.44177e-01
       H -2.37651e+00  8.40435e-01  9.15945e-01
       H -3.33267e+00  1.93192e+00 -2.35298e-01
4
# CELL(abcABC): 1000.00000  1000.00000  1000.00000    90.00000    90.00000    90.00000  Step:          28  Bead:       0 positions{angstrom}  cell{angstrom}
       O -3.13782e+00  1.05866e+00  3.43255e-01
       H -3.87605e+00  4.78435e-01  5.49846e-01
       H -2.36700e+00  8.53803e-01  9.13211e-01
       H -3.33501e+00  1.93400e+00 -2.26008e-01
4
# CELL(abcABC): 1000.00000  1000.00000  1000.00000    90.00000    90.00000    90.00000  Step:          29  Bead:       0 positions{angstrom}  cell{angstrom}
       O -3.13934e+00  1.05730e+00  3.42553e-01
       H -3.85835e+00  4.84652e-01  5.54237e-01
       H -2.35973e+00  8.67430e-01  9.09188e-01
       H -3.33583e+00  1.93576e+00 -2.15228e-01
4
# CELL(abcABC): 1000.00000  1000.00000  1000.00000    90.00000    90.00000    90.00000  Step:          30  Bead:       0 positions{angstrom}  cell{angstrom}
       O -3.14069e+00  1.05597e+00  3.41847e-01
       H -3.84232e+00  4.89931e-01  5.60055e-01
       H -2.35433e+00  8.81260e-01  9.04160e-01
       H -3.33597e+00  1.93778e+00 -2.04809e-01
4
# CELL(abcABC): 1000.00000  1000.00000  1000.00000    90.00000    90.00000    90.00000  Step:          31  Bead:       0 positions{angstrom}  cell{angstrom}
       O -3.14185e+00  1.05475e+00  3.41201e-01
       H -3.82865e+00  4.91933e-01  5.67301e-01
       H -2.35008e+00  8.96375e-01  8.97076e-01
       H -3.33544e+00  1.94002e+00 -1.94730e-01
4
# CELL(abcABC): 1000.00000  1000.00000  1000.00000    90.00000    90.00000    90.00000  Step:          32  Bead:       0 positions{angstrom}  cell{angstrom}
       O -3.14258e+00  1.05393e+00  3.40345e-01
       H -3.82123e+00  4.87423e-01  5.76893e-01
       H -2.34699e+00  9.12793e-01  8.89926e-01
       H -3.33429e+00  1.94113e+00 -1.83583e-01
4
# CELL(abcABC): 1000.00000  1000.00000  1000.00000    90.00000    90.00000    90.00000  Step:          33  Bead:       0 positions{angstrom}  cell{angstrom}
       O -3.14289e+00  1.05356e+00  3.39338e-01
       H -3.81983e+00  4.77393e-01  5.89535e-01
       H -2.34503e+00  9.28112e-01  8.82233e-01
       H -3.33273e+00  1.94166e+00 -1.72549e-01
4
# CELL(abcABC): 1000.00000  1000.00000  1000.00000    90.00000    90.00000    90.00000  Step:          34  Bead:       0 positions{angstrom}  cell{angstrom}
       O -3.14274e+00  1.05351e+00  3.38406e-01
       H -3.82236e+00  4.63202e-01  6.03441e-01
       H -2.34604e+00  9.42654e-01  8.74155e-01
       H -3.33163e+00  1.94215e+00 -1.63569e-01
4
# CELL(abcABC): 1000.00000  1000.00000  1000.00000    90.00000    90.00000    90.00000  Step:          35  Bead:       0 positions{angstrom}  cell{angstrom}
       O -3.14243e+00  1.05361e+00  3.37481e-01
       H -3.82578e+00  4.46434e-01  6.17295e-01
       H -2.34876e+00  9.57665e-01  8.66525e-01
       H -3.33036e+00  1.94223e+00 -1.55123e-01
4
# CELL(abcABC): 1000.00000  1000.00000  1000.00000    90.00000    90.00000    90.00000  Step:          36  Bead:       0 positions{angstrom}  cell{angstrom}
       O -3.14213e+00  1.05372e+00  3.36612e-01
       H -3.82973e+00  4.28803e-01  6.30481e-01
       H -2.35101e+00  9.73356e-01  8.58414e-01
       H -3.32899e+00  1.94241e+00 -1.46404e-01
4
# CELL(abcABC): 1000.00000  1000.00000  1000.00000    90.00000    90.00000    90.00000  Step:          37  Bead:       0 positions{angstrom}  cell{angstrom}
       O -3.14201e+00  1.05388e+00  3.35691e-01
       H -3.83212e+00  4.12655e-01  6.44485e-01
       H -2.35153e+00  9.87673e-01  8.50749e-01
       H -3.32797e+00  1.94172e+00 -1.38116e-01
4
# CELL(abcABC): 1000.00000  1000.00000  1000.00000    90.00000    90.00000    90.00000  Step:          38  Bead:       0 positions{angstrom}  cell{angstrom}
       O -3.14198e+00  1.05395e+00  3.35014e-01
       H -3.83329e+00  3.98236e-01  6.55704e-01
       H -2.35001e+00  9.99975e-01  8.44150e-01
       H -3.32883e+00  1.94282e+00 -1.31999e-01
4
# CELL(abcABC): 1000.00000  1000.00000  1000.00000    90.00000    90.00000    90.00000  Step:          39  Bead:       0 positions{angstrom}  cell{angstrom}
       O -3.14243e+00  1.05398e+00  3.34333e-01
       H -3.83056e+00  3.86131e-01  6.65340e-01
       H -2.34568e+00  1.01007e+00  8.40034e-01
       H -3.32869e+00  1.94423e+00 -1.26706e-01
4
# CELL(abcABC): 1000.00000  1000.00000  1000.00000    90.00000    90.00000    90.00000  Step:          40  Bead:       0 positions{angstrom}  cell{angstrom}
       O -3.14327e+00  1.05379e+00  3.33592e-01
       H -3.82414e+00  3.77681e-01  6.73527e-01
       H -2.33877e+00  1.01921e+00  8.39035e-01
       H -3.32874e+00  1.94665e+00 -1.22122e-01
4
# CELL(abcABC): 1000.00000  1000.00000  1000.00000    90.00000    90.00000    90.00000  Step:          41  Bead:       0 positions{angstrom}  cell{angstrom}
       O -3.14440e+00  1.05336e+00  3.32952e-01
       H -3.81426e+00  3.73730e-01  6.78736e-01
       H -2.32962e+00  1.02760e+00  8.39428e-01
       H -3.32986e+00  1.94900e+00 -1.17576e-01
4
# CELL(abcABC): 1000.00000  1000.00000  1000.00000    90.00000    90.00000    90.00000  Step:          42  Bead:       0 positions{angstrom}  cell{angstrom}
       O -3.14584e+00  1.05287e+00  3.32552e-01
       H -3.79948e+00  3.71533e-01  6.81123e-01
       H -2.31958e+00  1.03491e+00  8.40660e-01
       H -3.33176e+00  1.95165e+00 -1.14843e-01
4
# CELL(abcABC): 1000.00000  1000.00000  1000.00000    90.00000    90.00000    90.00000  Step:          43  Bead:       0 positions{angstrom}  cell{angstrom}
       O -3.14736e+00  1.05217e+00  3.32381e-01
       H -3.78215e+00  3.73234e-01  6.80892e-01
       H -2.30990e+00  1.04242e+00  8.41918e-01
       H -3.33470e+00  1.95355e+00 -1.13155e-01
4
# CELL(abcABC): 1000.00000  1000.00000  1000.00000    90.00000    90.00000    90.00000  Step:          44  Bead:       0 positions{angstrom}  cell{angstrom}
       O -3.14880e+00  1.05143e+00  3.32435e-01
       H -3.76280e+00  3.76395e-01  6.78236e-01
       H -2.30168e+00  1.04836e+00  8.41882e-01
       H -3.33942e+00  1.95618e+00 -1.11325e-01
4
# CELL(abcABC): 1000.00000  1000.00000  1000.00000    90.00000    90.00000    90.00000  Step:          45  Bead:       0 positions{angstrom}  cell{angstrom}
       O -3.14995e+00  1.05074e+00  3.32762e-01
       H -3.74349e+00  3.80516e-01  6.73761e-01
       H -2.29512e+00  1.05250e+00  8.39740e-01
       H -3.34698e+00  1.95891e+00 -1.09892e-01
4
# CELL(abcABC): 1000.00000  1000.00000  1000.00000    90.00000    90.00000    90.00000  Step:          46  Bead:       0 positions{angstrom}  cell{angstrom}
       O -3.15083e+00  1.05021e+00  3.33299e-01
       H -3.72517e+00  3.84498e-01  6.68487e-01
       H -2.29152e+00  1.05457e+00  8.35512e-01
       H -3.35492e+00  1.96129e+00 -1.08916e-01
4
# CELL(abcABC): 1000.00000  1000.00000  1000.00000    90.00000    90.00000    90.00000  Step:          47  Bead:       0 positions{angstrom}  cell{angstrom}
       O -3.15127e+00  1.04982e+00  3.34086e-01
       H -3.70922e+00  3.85734e-01  6.63945e-01
       H -2.29078e+00  1.05564e+00  8.28691e-01
       H -3.36469e+00  1.96511e+00 -1.10045e-01
4
# CELL(abcABC): 1000.00000  1000.00000  1000.00000    90.00000    90.00000    90.00000  Step:          48  Bead:       0 positions{angstrom}  cell{angstrom}
       O -3.15121e+00  1.04989e+00  3.34926e-01
       H -3.69635e+00  3.81959e-01  6.60888e-01
       H -2.29281e+00  1.05610e+00  8.19511e-01
       H -3.37644e+00  1.96741e+00 -1.11146e-01
4
# CELL(abcABC): 1000.00000  1000.00000  1000.00000    90.00000    90.00000    90.00000  Step:          49  Bead:       0 positions{angstrom}  cell{angstrom}
       O -3.15073e+00  1.05037e+00  3.35664e-01
       H -3.68754e+00  3.72910e-01  6.59933e-01
       H -2.29578e+00  1.05513e+00  8.09152e-01
       H -3.38995e+00  1.96975e+00 -1.11539e-01
4
# CELL(abcABC): 1000.00000  1000.00000  1000.00000    90.00000    90.00000    90.00000  Step:          50  Bead:       0 positions{angstrom}  cell{angstrom}
       O -3.14968e+00  1.05134e+00  3.36481e-01
       H -3.68297e+00  3.59305e-01  6.60089e-01
       H -2.30175e+00  1.05236e+00  7.98010e-01
       H -3.40519e+00  1.97075e+00 -1.13520e-01
4
# CELL(abcABC): 1000.00000  1000.00000  1000.00000    90.00000    90.00000    90.00000  Step:          51  Bead:       0 positions{angstrom}  cell{angstrom}
       O -3.14838e+00  1.05265e+00  3.37275e-01
       H -3.68187e+00  3.41625e-01  6.60670e-01
       H -2.30807e+00  1.04897e+00  7.86508e-01
       H -3.42055e+00  1.97100e+00 -1.15202e-01
4
# CELL(abcABC): 1000.00000  1000.00000  1000.00000    90.00000    90.00000    90.00000  Step:          52  Bead:       0 positions{angstrom}  cell{angstrom}
       O -3.14699e+00  1.05431e+00  3.38138e-01
       H -3.68301e+00  3.21691e-01  6.61351e-01
       H -2.31323e+00  1.04422e+00  7.74389e-01
       H -3.43636e+00  1.96940e+00 -1.17469e-01
4
# CELL(abcABC): 1000.00000  1000.00000  1000.00000    90.00000    90.00000    90.00000  Step:          53  Bead:       0 positions{angstrom}  cell{angstrom}
       O -3.14573e+00  1.05607e+00  3.38925e-01
       H -3.68407e+00  3.02109e-01  6.60400e-01
       H -2.31576e+00  1.04022e+00  7.64171e-01
       H -3.45273e+00  1.96507e+00 -1.18790e-01
4
# CELL(abcABC): 1000.00000  1000.00000  1000.00000    90.00000    90.00000    90.00000  Step:          54  Bead:       0 positions{angstrom}  cell{angstrom}
       O -3.14472e+00  1.05793e+00  3.39401e-01
       H -3.68455e+00  2.83108e-01  6.59199e-01
       H -2.31462e+00  1.03640e+00  7.56577e-01
       H -3.46941e+00  1.95828e+00 -1.17555e-01
4
# CELL(abcABC): 1000.00000  1000.00000  1000.00000    90.00000    90.00000    90.00000  Step:          55  Bead:       0 positions{angstrom}  cell{angstrom}
       O -3.14413e+00  1.05973e+00  3.39804e-01
       H -3.68397e+00  2.67153e-01  6.56972e-01
       H -2.30879e+00  1.03228e+00  7.51747e-01
       H -3.48521e+00  1.94976e+00 -1.16892e-01
4
# CELL(abcABC): 1000.00000  1000.00000  1000.00000    90.00000    90.00000    90.00000  Step:          56  Bead:       0 positions{angstrom}  cell{angstrom}
       O -3.14401e+00  1.06133e+00  3.40196e-01
       H -3.67889e+00  2.55423e-01  6.53263e-01
       H -2.29889e+00  1.02761e+00  7.47712e-01
       H -3.50206e+00  1.94080e+00 -1.15373e-01
4
# CELL(abcABC): 1000.00000  1000.00000  1000.00000    90.00000    90.00000    90.00000  Step:          57  Bead:       0 positions{angstrom}  cell{angstrom}
       O -3.14426e+00  1.06266e+00  3.40572e-01
       H -3.66957e+00  2.48768e-01  6.47914e-01
       H -2.28679e+00  1.02235e+00  7.46038e-01
       H -3.51960e+00  1.93162e+00 -1.14309e-01
4
# CELL(abcABC): 1000.00000  1000.00000  1000.00000    90.00000    90.00000    90.00000  Step:          58  Bead:       0 positions{angstrom}  cell{angstrom}
       O -3.14487e+00  1.06378e+00  3.41027e-01
       H -3.65653e+00  2.45879e-01  6.40349e-01
       H -2.27240e+00  1.01713e+00  7.45696e-01
       H -3.53735e+00  1.92199e+00 -1.13632e-01
4
# CELL(abcABC): 1000.00000  1000.00000  1000.00000    90.00000    90.00000    90.00000  Step:          59  Bead:       0 positions{angstrom}  cell{angstrom}
       O -3.14571e+00  1.06459e+00  3.41489e-01
       H -3.64025e+00  2.47199e-01  6.31068e-01
       H -2.25736e+00  1.01266e+00  7.46887e-01
       H -3.55528e+00  1.91216e+00 -1.12870e-01
4
# CELL(abcABC): 1000.00000  1000.00000  1000.00000    90.00000    90.00000    90.00000  Step:          60  Bead:       0 positions{angstrom}  cell{angstrom}
       O -3.14664e+00  1.06524e+00  3.42152e-01
       H -3.62335e+00  2.51335e-01  6.20448e-01
       H -2.24275e+00  1.00807e+00  7.45695e-01
       H -3.57205e+00  1.90235e+00 -1.11579e-01
4
# CELL(abcABC): 1000.00000  1000.00000  1000.00000    90.00000    90.00000    90.00000  Step:          61  Bead:       0 positions{angstrom}  cell{angstrom}
       O -3.14758e+00  1.06577e+00  3.43013e-01
       H -3.60478e+00  2.56840e-01  6.08644e-01
       H -2.22944e+00  1.00390e+00  7.41781e-01
       H -3.58899e+00  1.89260e+00 -1.09528e-01
4
# CELL(abcABC): 1000.00000  1000.00000  1000.00000    90.00000    90.00000    90.00000  Step:          62  Bead:       0 positions{angstrom}  cell{angstrom}
       O -3.14823e+00  1.06632e+00  3.44173e-01
       H -3.58729e+00  2.61734e-01  5.96043e-01
       H -2.22090e+00  1.00004e+00  7.35455e-01
       H -3.60464e+00  1.88285e+00 -1.09022e-01
4
# CELL(abcABC): 1000.00000  1000.00000  1000.00000    90.00000    90.00000    90.00000  Step:          63  Bead:       0 positions{angstrom}  cell{angstrom}
       O -3.14852e+00  1.06679e+00  3.45327e-01
       H -3.57082e+00  2.66069e-01  5.84127e-01
       H -2.21682e+00  9.96321e-01  7.26838e-01
       H -3.62064e+00  1.87470e+00 -1.06801e-01
4
# CELL(abcABC): 1000.00000  1000.00000  1000.00000    90.00000    90.00000    90.00000  Step:          64  Bead:       0 positions{angstrom}  cell{angstrom}
       O -3.14845e+00  1.06739e+00  3.46551e-01
       H -3.55553e+00  2.67427e-01  5.73933e-01
       H -2.21663e+00  9.93364e-01  7.16136e-01
       H -3.63714e+00  1.86681e+00 -1.05343e-01
4
# CELL(abcABC): 1000.00000  1000.00000  1000.00000    90.00000    90.00000    90.00000  Step:          65  Bead:       0 positions{angstrom}  cell{angstrom}
       O -3.14799e+00  1.06813e+00  3.47872e-01
       H -3.54422e+00  2.64809e-01  5.63747e-01
       H -2.21963e+00  9.92764e-01  7.03345e-01
       H -3.65286e+00  1.85826e+00 -1.03324e-01
4
# CELL(abcABC): 1000.00000  1000.00000  1000.00000    90.00000    90.00000    90.00000  Step:          66  Bead:       0 positions{angstrom}  cell{angstrom}
       O -3.14716e+00  1.06901e+00  3.49139e-01
       H -3.53655e+00  2.59619e-01  5.55457e-01
       H -2.22554e+00  9.91898e-01  6.89291e-01
       H -3.66772e+00  1.85049e+00 -1.01105e-01
4
# CELL(abcABC): 1000.00000  1000.00000  1000.00000    90.00000    90.00000    90.00000  Step:          67  Bead:       0 positions{angstrom}  cell{angstrom}
       O -3.14597e+00  1.07017e+00  3.50412e-01
       H -3.53217e+00  2.48622e-01  5.47506e-01
       H -2.23279e+00  9.92408e-01  6.74667e-01
       H -3.68376e+00  1.84255e+00 -9.87252e-02
4
# CELL(abcABC): 1000.00000  1000.00000  1000.00000    90.00000    90.00000    90.00000  Step:          68  Bead:       0 positions{angstrom}  cell{angstrom}
       O -3.14465e+00  1.07142e+00  3.51818e-01
       H -3.53013e+00  2.33537e-01  5.40087e-01
       H -2.24004e+00  9.94322e-01  6.57928e-01
       H -3.69962e+00  1.83575e+00 -9.68964e-02
4
# CELL(abcABC): 1000.00000  1000.00000  1000.00000    90.00000    90.00000    90.00000  Step:          69  Bead:       0 positions{angstrom}  cell{angstrom}
       O -3.14326e+00  1.07284e+00  3.53018e-01
       H -3.53052e+00  2.14771e-01  5.34714e-01
       H -2.24656e+00  9.97636e-01  6.42160e-01
       H -3.71472e+00  1.82880e+00 -9.47982e-02
4
# CELL(abcABC): 1000.00000  1000.00000  1000.00000    90.00000    90.00000    90.00000  Step:          70  Bead:       0 positions{angstrom}  cell{angstrom}
       O -3.14222e+00  1.07402e+00  3.54183e-01
       H -3.53147e+00  1.96544e-01  5.28389e-01
       H -2.24972e+00  1.00299e+00  6.26733e-01
       H -3.72715e+00  1.82291e+00 -9.15447e-02
4
# CELL(abcABC): 1000.00000  1000.00000  1000.00000    90.00000    90.00000    90.00000  Step:          71  Bead:       0 positions{angstrom}  cell{angstrom}
       O -3.14147e+00  1.07507e+00  3.55371e-01
       H -3.53305e+00  1.78961e-01  5.20331e-01
       H -2.24882e+00  1.00904e+00  6.11879e-01
       H -3.73832e+00  1.81779e+00 -8.74860e-02
4
# CELL(abcABC): 1000.00000  1000.00000  1000.00000    90.00000    90.00000    90.00000  Step:          72  Bead:       0 positions{angstrom}  cell{angstrom}
       O -3.14121e+00  1.07571e+00  3.56462e-01
       H -3.53335e+00  1.64909e-01  5.12002e-01
       H -2.24253e+00  1.01641e+00  5.98976e-01
       H -3.74840e+00  1.81428e+00 -8.35750e-02
4
# CELL(abcABC): 1000.00000  1000.00000  1000.00000    90.00000    90.00000    90.00000  Step:          73  Bead:       0 positions{angstrom}  cell{angstrom}
       O -3.14139e+00  1.07601e+00  3.57583e-01
       H -3.53223e+00  1.54969e-01  5.02909e-01
       H -2.23137e+00  1.02528e+00  5.87228e-01
       H -3.75786e+00  1.81058e+00 -8.05174e-02
4
# CELL(abcABC): 1000.00000  1000.00000  1000.00000    90.00000    90.00000    90.00000  Step:          74  Bead:       0 positions{angstrom}  cell{angstrom}
       O -3.14203e+00  1.07585e+00  3.58836e-01
       H -3.52885e+00  1.49898e-01  4.91941e-01
       H -2.21652e+00  1.03526e+00  5.75157e-01
       H -3.76592e+00  1.80823e+00 -7.73691e-02
4
# CELL(abcABC): 1000.00000  1000.00000  1000.00000    90.00000    90.00000    90.00000  Step:          75  Bead:       0 positions{angstrom}  cell{angstrom}
       O -3.14284e+00  1.07533e+00  3.60079e-01
       H -3.52384e+00  1.48627e-01  4.79981e-01
       H -2.20034e+00  1.04567e+00  5.64308e-01
       H -3.77418e+00  1.80738e+00 -7.42927e-02
4
# CELL(abcABC): 1000.00000  1000.00000  1000.00000    90.00000    90.00000    90.00000  Step:          76  Bead:       0 positions{angstrom}  cell{angstrom}
       O -3.14395e+00  1.07432e+00  3.61193e-01
       H -3.51590e+00  1.52014e-01  4.68863e-01
       H -2.18428e+00  1.05704e+00  5.53667e-01
       H -3.78059e+00  1.80864e+00 -7.02128e-02
4
# CELL(abcABC): 1000.00000  1000.00000  1000.00000    90.00000    90.00000    90.00000  Step:          77  Bead:       0 positions{angstrom}  cell{angstrom}
       O -3.14506e+00  1.07299e+00  3.62260e-01
       H -3.50621e+00  1.59844e-01  4.57754e-01
       H -2.17046e+00  1.06945e+00  5.43478e-01
       H -3.78656e+00  1.80949e+00 -6.58578e-02
4
# CELL(abcABC): 1000.00000  1000.00000  1000.00000    90.00000    90.00000    90.00000  Step:          78  Bead:       0 positions{angstrom}  cell{angstrom}
       O -3.14606e+00  1.07150e+00  3.63471e-01
       H -3.49635e+00  1.69129e-01  4.45966e-01
       H -2.15903e+00  1.08299e+00  5.32707e-01
       H -3.79189e+00  1.81033e+00 -6.25254e-02
4
# CELL(abcABC): 1000.00000  1000.00000  1000.00000    90.00000    90.00000    90.00000  Step:          79  Bead:       0 positions{angstrom}  cell{angstrom}
       O -3.14698e+00  1.07007e+00  3.64617e-01
       H -3.48639e+00  1.79362e-01  4.35941e-01
       H -2.15054e+00  1.09592e+00  5.21308e-01
       H -3.79574e+00  1.80982e+00 -5.92937e-02
4
# CELL(abcABC): 1000.00000  1000.00000  1000.00000    90.00000    90.00000    90.00000  Step:          80  Bead:       0 positions{angstrom}  cell{angstrom}
       O -3.14776e+00  1.06878e+00  3.65608e-01
       H -3.47597e+00  1.88382e-01  4.26632e-01
       H -2.14651e+00  1.10852e+00  5.10516e-01
       H -3.79780e+00  1.80869e+00 -5.49152e-02
4
# CELL(abcABC): 1000.00000  1000.00000  1000.00000    90.00000    90.00000    90.00000  Step:          81  Bead:       0 positions{angstrom}  cell{angstrom}
       O -3.14831e+00  1.06761e+00  3.66598e-01
       H -3.46405e+00  1.94864e-01  4.17565e-01
       H -2.14820e+00  1.12272e+00  4.99529e-01
       H -3.79932e+00  1.80653e+00 -5.05761e-02
4
# CELL(abcABC): 1000.00000  1000.00000  1000.00000    90.00000    90.00000    90.00000  Step:          82  Bead:       0 positions{angstrom}  cell{angstrom}
       O -3.14853e+00  1.06697e+00  3.67415e-01
       H -3.45259e+00  1.95616e-01  4.10213e-01
       H -2.15448e+00  1.13528e+00  4.88214e-01
       H -3.80101e+00  1.80345e+00 -4.48844e-02
4
# CELL(abcABC): 1000.00000  1000.00000  1000.00000    90.00000    90.00000    90.00000  Step:          83  Bead:       0 positions{angstrom}  cell{angstrom}
       O -3.14848e+00  1.06670e+00  3.68147e-01
       H -3.44249e+00  1.90806e-01  4.04242e-01
       H -2.16504e+00  1.14774e+00  4.76791e-01
       H -3.80137e+00  1.80009e+00 -3.91071e-02
4
# CELL(abcABC): 1000.00000  1000.00000  1000.00000    90.00000    90.00000    90.00000  Step:          84  Bead:       0 positions{angstrom}  cell{angstrom}
       O -3.14817e+00  1.06685e+00  3.68819e-01
       H -3.43262e+00  1.79458e-01  3.98141e-01
       H -2.17978e+00  1.15991e+00  4.65311e-01
       H -3.80150e+00  1.79679e+00 -3.21976e-02
4
# CELL(abcABC): 1000.00000  1000.00000  1000.00000    90.00000    90.00000    90.00000  Step:          85  Bead:       0 positions{angstrom}  cell{angstrom}