4
# CELL(abcABC): 1000.00000  1000.00000  1000.00000    90.00000    90.00000    90.00000  Step:           0  Bead:       0 positions{angstrom}  cell{angstrom}
       O -3.15176e+00  1.06717e+00  3.44101e-01
       H -2.78773e+00  4.51838e-01 -2.26396e-01
       H -2.76707e+00  9.29024e-01  1.19003e+00
       H -3.80197e+00  1.74999e+00  2.59987e-01
4
# CELL(abcABC): 1000.00000  1000.00000  1000.00000    90.00000    90.00000    90.00000  Step:           1  Bead:       0 positions{angstrom}  cell{angstrom}
       O -3.15018e+00  1.06760e+00  3.43685e-01
       H -2.79601e+00  4.42259e-01 -2.24568e-01
       H -2.76601e+00  9.27870e-01  1.19198e+00
       H -3.81980e+00  1.75387e+00  2.62814e-01
4
# CELL(abcABC): 1000.00000  1000.00000  1000.00000    90.00000    90.00000    90.00000  Step:           2  Bead:       0 positions{angstrom}  cell{angstrom}
       O -3.14890e+00  1.06830e+00  3.43524e-01
       H -2.80177e+00  4.28255e-01 -2.26837e-01
       H -2.76165e+00  9.25800e-01  1.19524e+00
       H -3.83878e+00  1.75880e+00  2.64370e-01
4
# CELL(abcABC): 1000.00000  1000.00000  1000.00000    90.00000    90.00000    90.00000  Step:           3  Bead:       0 positions{angstrom}  cell{angstrom}
       O -3.14774e+00  1.06928e+00  3.43529e-01
       H -2.80491e+00  4.09415e-01 -2.30919e-01
       H -2.75611e+00  9.24108e-01  1.19988e+00
       H -3.85957e+00  1.76388e+00  2.63735e-01
4
# CELL(abcABC): 1000.00000  1000.00000  1000.00000    90.00000    90.00000    90.00000  Step:           4  Bead:       0 positions{angstrom}  cell{angstrom}
       O -3.14671e+00  1.07044e+00  3.43811e-01
       H -2.80706e+00  3.87278e-01 -2.38162e-01
       H -2.74883e+00  9.22612e-01  1.20412e+00
       H -3.88111e+00  1.76903e+00  2.62261e-01
4
# CELL(abcABC): 1000.00000  1000.00000  1000.00000    90.00000    90.00000    90.00000  Step:           5  Bead:       0 positions{angstrom}  cell{angstrom}
       O -3.14561e+00  1.07151e+00  3.44265e-01
       H -2.80972e+00  3.64983e-01 -2.45966e-01
       H -2.74141e+00  9.22055e-01  1.20875e+00
       H -3.90331e+00  1.77489e+00  2.58226e-01
4
# CELL(abcABC): 1000.00000  1000.00000  1000.00000    90.00000    90.00000    90.00000  Step:           6  Bead:       0 positions{angstrom}  cell{angstrom}
       O -3.14437e+00  1.07256e+00  3.44829e-01
       H -2.81284e+00  3.44531e-01 -2.53433e-01
       H -2.73416e+00  9.19867e-01  1.21114e+00
       H -3.92703e+00  1.78082e+00  2.54354e-01
4
# CELL(abcABC): 1000.00000  1000.00000  1000.00000    90.00000    90.00000    90.00000  Step:           7  Bead:       0 positions{angstrom}  cell{angstrom}
       O -3.14313e+00  1.07333e+00  3.45217e-01
       H -2.81559e+00  3.27131e-01 -2.57084e-01
       H -2.72680e+00  9.17342e-01  1.21268e+00
       H -3.95141e+00  1.78858e+00  2.50314e-01
4
# CELL(abcABC): 1000.00000  1000.00000  1000.00000    90.00000    90.00000    90.00000  Step:           8  Bead:       0 positions{angstrom}  cell{angstrom}
       O -3.14190e+00  1.07385e+00  3.45634e-01
       H -2.81868e+00  3.13805e-01 -2.58062e-01
       H -2.71832e+00  9.13943e-01  1.21164e+00
       H -3.97634e+00  1.79701e+00  2.45709e-01
4
# CELL(abcABC): 1000.00000  1000.00000  1000.00000    90.00000    90.00000    90.00000  Step:           9  Bead:       0 positions{angstrom}  cell{angstrom}
       O -3.14064e+00  1.07417e+00  3.45868e-01
       H -2.82314e+00  3.04326e-01 -2.54149e-01
       H -2.70874e+00  9.10723e-01  1.20915e+00
       H -4.00143e+00  1.80475e+00  2.40572e-01
4
# CELL(abcABC): 1000.00000  1000.00000  1000.00000    90.00000    90.00000    90.00000  Step:          10  Bead:       0 positions{angstrom}  cell{angstrom}
       O -3.13933e+00  1.07410e+00  3.46160e-01
       H -2.82874e+00  2.99733e-01 -2.47198e-01
       H -2.69894e+00  9.08237e-01  1.20385e+00
       H -4.02645e+00  1.81294e+00  2.34284e-01
4
# CELL(abcABC): 1000.00000  1000.00000  1000.00000    90.00000    90.00000    90.00000  Step:          11  Bead:       0 positions{angstrom}  cell{angstrom}
       O -3.13799e+00  1.07373e+00  3.46532e-01
       H -2.83506e+00  3.00638e-01 -2.38032e-01
       H -2.69033e+00  9.05523e-01  1.19623e+00
       H -4.05001e+00  1.82052e+00  2.26842e-01
4
# CELL(abcABC): 1000.00000  1000.00000  1000.00000    90.00000    90.00000    90.00000  Step:          12  Bead:       0 positions{angstrom}  cell{angstrom}
       O -3.13681e+00  1.07317e+00  3.46920e-01
       H -2.84067e+00  3.05658e-01 -2.26244e-01
       H -2.68155e+00  9.01617e-01  1.18615e+00
       H -4.07190e+00  1.82841e+00  2.18961e-01
4
# CELL(abcABC): 1000.00000  1000.00000  1000.00000    90.00000    90.00000    90.00000  Step:          13  Bead:       0 positions{angstrom}  cell{angstrom}
       O -3.13579e+00  1.07241e+00  3.47243e-01
       H -2.84634e+00  3.14705e-01 -2.12115e-01
       H -2.67100e+00  8.97578e-01  1.17528e+00
       H -4.09299e+00  1.83532e+00  2.10588e-01
4
# CELL(abcABC): 1000.00000  1000.00000  1000.00000    90.00000    90.00000    90.00000  Step:          14  Bead:       0 positions{angstrom}  cell{angstrom}
       O -3.13498e+00  1.07154e+00  3.47511e-01
       H -2.85025e+00  3.25586e-01 -1.96642e-01
       H -2.65924e+00  8.94191e-01  1.16421e+00
       H -4.11357e+00  1.84178e+00  2.01930e-01
4
# CELL(abcABC): 1000.00000  1000.00000  1000.00000    90.00000    90.00000    90.00000  Step:          15  Bead:       0 positions{angstrom}  cell{angstrom}
       O -3.13433e+00  1.07054e+00  3.47591e-01
       H -2.85515e+00  3.36380e-01 -1.79520e-01
       H -2.64722e+00  8.91490e-01  1.15378e+00
       H -4.13105e+00  1.84949e+00  1.93967e-01
4
# CELL(abcABC): 1000.00000  1000.00000  1000.00000    90.00000    90.00000    90.00000  Step:          16  Bead:       0 positions{angstrom}  cell{angstrom}
       O -3.13399e+00  1.06959e+00  3.47768e-01
       H -2.85740e+00  3.45117e-01 -1.64962e-01
       H -2.63442e+00  8.90197e-01  1.14435e+00
       H -4.14704e+00  1.85712e+00  1.86022e-01
4
# CELL(abcABC): 1000.00000  1000.00000  1000.00000    90.00000    90.00000    90.00000  Step:          17  Bead:       0 positions{angstrom}  cell{angstrom}
       O -3.13386e+00  1.06886e+00  3.48108e-01
       H -2.85677e+00  3.50683e-01 -1.53963e-01
       H -2.62169e+00  8.90104e-01  1.13525e+00
       H -4.16247e+00  1.86319e+00  1.78731e-01
4
# CELL(abcABC): 1000.00000  1000.00000  1000.00000    90.00000    90.00000    90.00000  Step:          18  Bead:       0 positions{angstrom}  cell{angstrom}
       O -3.13401e+00  1.06836e+00  3.48660e-01
       H -2.85461e+00  3.52053e-01 -1.47692e-01
       H -2.60692e+00  8.90698e-01  1.12765e+00
       H -4.17696e+00  1.86929e+00  1.71297e-01
4
# CELL(abcABC): 1000.00000  1000.00000  1000.00000    90.00000    90.00000    90.00000  Step:          19  Bead:       0 positions{angstrom}  cell{angstrom}
       O -3.13457e+00  1.06823e+00  3.49435e-01
       H -2.84940e+00  3.47733e-01 -1.46345e-01
       H -2.59210e+00  8.91550e-01  1.12097e+00
       H -4.18813e+00  1.87476e+00  1.64316e-01
4
# CELL(abcABC): 1000.00000  1000.00000  1000.00000    90.00000    90.00000    90.00000  Step:          20  Bead:       0 positions{angstrom}  cell{angstrom}
       O -3.13540e+00  1.06844e+00  3.50493e-01
       H -2.84179e+00  3.38937e-01 -1.51407e-01
       H -2.57763e+00  8.93457e-01  1.11600e+00
       H -4.19702e+00  1.87830e+00  1.57562e-01
4
# CELL(abcABC): 1000.00000  1000.00000  1000.00000    90.00000    90.00000    90.00000  Step:          21  Bead:       0 positions{angstrom}  cell{angstrom}
       O -3.13653e+00  1.06883e+00  3.51795e-01
       H -2.83302e+00  3.26381e-01 -1.61528e-01
       H -2.56120e+00  8.96979e-01  1.11316e+00
       H -4.20438e+00  1.88109e+00  1.49854e-01
4
# CELL(abcABC): 1000.00000  1000.00000  1000.00000    90.00000    90.00000    90.00000  Step:          22  Bead:       0 positions{angstrom}  cell{angstrom}
       O -3.13785e+00  1.06919e+00  3.53301e-01
       H -2.82471e+00  3.11920e-01 -1.72964e-01
       H -2.54267e+00  9.01921e-01  1.10934e+00
       H -4.21016e+00  1.88499e+00  1.41212e-01
4
# CELL(abcABC): 1000.00000  1000.00000  1000.00000    90.00000    90.00000    90.00000  Step:          23  Bead:       0 positions{angstrom}  cell{angstrom}
       O -3.13926e+00  1.06943e+00  3.55037e-01
       H -2.81656e+00  2.99105e-01 -1.85592e-01
       H -2.52363e+00  9.08611e-01  1.10593e+00
       H -4.21493e+00  1.88733e+00  1.29683e-01
4
# CELL(abcABC): 1000.00000  1000.00000  1000.00000    90.00000    90.00000    90.00000  Step:          24  Bead:       0 positions{angstrom}  cell{angstrom}
       O -3.14067e+00  1.06934e+00  3.56766e-01
       H -2.80890e+00  2.88205e-01 -1.97493e-01
       H -2.50507e+00  9.17673e-01  1.10222e+00
       H -4.21881e+00  1.89052e+00  1.17861e-01
4
# CELL(abcABC): 1000.00000  1000.00000  1000.00000    90.00000    90.00000    90.00000  Step:          25  Bead:       0 positions{angstrom}  cell{angstrom}
       O -3.14193e+00  1.06903e+00  3.58336e-01
       H -2.80300e+00  2.80572e-01 -2.06596e-01
       H -2.48820e+00  9.27367e-01  1.09762e+00
       H -4.22165e+00  1.89337e+00  1.06641e-01
4
# CELL(abcABC): 1000.00000  1000.00000  1000.00000    90.00000    90.00000    90.00000  Step:          26  Bead:       0 positions{angstrom}  cell{angstrom}
       O -3.14300e+00  1.06845e+00  3.59769e-01
       H -2.79921e+00  2.77384e-01 -2.13577e-01
       H -2.47277e+00  9.37978e-01  1.09143e+00
       H -4.22387e+00  1.89524e+00  9.70698e-02
4
# CELL(abcABC): 1000.00000  1000.00000  1000.00000    90.00000    90.00000    90.00000  Step:          27  Bead:       0 positions{angstrom}  cell{angstrom}
       O -3.14396e+00  1.06747e+00  3.61084e-01
       H -2.79796e+00  2.80655e-01 -2.17888e-01
       H -2.45940e+00  9.48833e-01  1.08332e+00
       H -4.22330e+00  1.89661e+00  8.86048e-02
4
# CELL(abcABC): 1000.00000  1000.00000  1000.00000    90.00000    90.00000    90.00000  Step:          28  Bead:       0 positions{angstrom}  cell{angstrom}
       O -3.14463e+00  1.06614e+00  3.62176e-01
       H -2.80016e+00  2.87827e-01 -2.18868e-01
       H -2.44767e+00  9.60762e-01  1.07388e+00
       H -4.22211e+00  1.89865e+00  8.16909e-02
4
# CELL(abcABC): 1000.00000  1000.00000  1000.00000    90.00000    90.00000    90.00000  Step:          29  Bead:       0 positions{angstrom}  cell{angstrom}
       O -3.14511e+00  1.06444e+00  3.63118e-01
       H -2.80393e+00  3.00265e-01 -2.17956e-01
       H -2.43921e+00  9.73451e-01  1.06297e+00
       H -4.21920e+00  1.90040e+00  7.67512e-02
4
# CELL(abcABC): 1000.00000  1000.00000  1000.00000    90.00000    90.00000    90.00000  Step:          30  Bead:       0 positions{angstrom}  cell{angstrom}
       O -3.14540e+00  1.06238e+00  3.63861e-01
       H -2.80927e+00  3.17771e-01 -2.13456e-01
       H -2.43321e+00  9.86744e-01  1.05131e+00
       H -4.21527e+00  1.90230e+00  7.21114e-02
4
# CELL(abcABC): 1000.00000  1000.00000  1000.00000    90.00000    90.00000    90.00000  Step:          31  Bead:       0 positions{angstrom}  cell{angstrom}
       O -3.14568e+00  1.06005e+00  3.64528e-01
       H -2.81447e+00  3.38071e-01 -2.06863e-01
       H -2.42855e+00  1.00166e+00  1.03829e+00
       H -4.21021e+00  1.90415e+00  6.79489e-02
4
# CELL(abcABC): 1000.00000  1000.00000  1000.00000    90.00000    90.00000    90.00000  Step:          32  Bead:       0 positions{angstrom}  cell{angstrom}
       O -3.14588e+00  1.05778e+00  3.64926e-01
       H -2.82129e+00  3.57218e-01 -1.99081e-01
       H -2.42491e+00  1.01820e+00  1.02632e+00
       H -4.20395e+00  1.90445e+00  6.58164e-02
4
# CELL(abcABC): 1000.00000  1000.00000  1000.00000    90.00000    90.00000    90.00000  Step:          33  Bead:       0 positions{angstrom}  cell{angstrom}
       O -3.14607e+00  1.05578e+00  3.65194e-01
       H -2.82851e+00  3.74146e-01 -1.91103e-01
       H -2.42205e+00  1.03397e+00  1.01519e+00
       H -4.19649e+00  1.90349e+00  6.47065e-02
4
# CELL(abcABC): 1000.00000  1000.00000  1000.00000    90.00000    90.00000    90.00000  Step:          34  Bead:       0 positions{angstrom}  cell{angstrom}
       O -3.14623e+00  1.05413e+00  3.65624e-01
       H -2.83422e+00  3.86988e-01 -1.86113e-01
       H -2.42174e+00  1.04933e+00  1.00523e+00
       H -4.18856e+00  1.90151e+00  6.28668e-02
4
# CELL(abcABC): 1000.00000  1000.00000  1000.00000    90.00000    90.00000    90.00000  Step:          35  Bead:       0 positions{angstrom}  cell{angstrom}
       O -3.14660e+00  1.05290e+00  3.66183e-01
       H -2.83636e+00  3.93935e-01 -1.86175e-01
       H -2.42288e+00  1.06558e+00  9.97284e-01
       H -4.17938e+00  1.89792e+00  6.19906e-02
4
# CELL(abcABC): 1000.00000  1000.00000  1000.00000    90.00000    90.00000    90.00000  Step:          36  Bead:       0 positions{angstrom}  cell{angstrom}
       O -3.14724e+00  1.05209e+00  3.66902e-01
       H -2.83601e+00  3.94261e-01 -1.91675e-01
       H -2.42357e+00  1.08298e+00  9.90297e-01
       H -4.16890e+00  1.89294e+00  6.30709e-02
4
# CELL(abcABC): 1000.00000  1000.00000  1000.00000    90.00000    90.00000    90.00000  Step:          37  Bead:       0 positions{angstrom}  cell{angstrom}
       O -3.14819e+00  1.05184e+00  3.67598e-01
       H -2.83295e+00  3.89201e-01 -1.99868e-01
       H -2.42299e+00  1.09954e+00  9.84910e-01
       H -4.15745e+00  1.88540e+00  6.55953e-02
4
# CELL(abcABC): 1000.00000  1000.00000  1000.00000    90.00000    90.00000    90.00000  Step:          38  Bead:       0 positions{angstrom}  cell{angstrom}
       O -3.14922e+00  1.05202e+00  3.68461e-01
       H -2.82931e+00  3.79001e-01 -2.12487e-01
       H -2.42128e+00  1.11463e+00  9.81406e-01
       H -4.14647e+00  1.87774e+00  6.80263e-02
4
# CELL(abcABC): 1000.00000  1000.00000  1000.00000    90.00000    90.00000    90.00000  Step:          39  Bead:       0 positions{angstrom}  cell{angstrom}
       O -3.15060e+00  1.05263e+00  3.69108e-01
       H -2.82418e+00  3.65248e-01 -2.26006e-01
       H -2.41800e+00  1.12802e+00  9.80854e-01
       H -4.13303e+00  1.86843e+00  7.18343e-02
4
# CELL(abcABC): 1000.00000  1000.00000  1000.00000    90.00000    90.00000    90.00000  Step:          40  Bead:       0 positions{angstrom}  cell{angstrom}
       O -3.15212e+00  1.05338e+00  3.69351e-01
       H -2.81915e+00  3.50782e-01 -2.38023e-01
       H -2.41357e+00  1.14087e+00  9.83607e-01
       H -4.11833e+00  1.85817e+00  7.72273e-02
4
# CELL(abcABC): 1000.00000  1000.00000  1000.00000    90.00000    90.00000    90.00000  Step:          41  Bead:       0 positions{angstrom}  cell{angstrom}
       O -3.15365e+00  1.05417e+00  3.69256e-01
       H -2.81529e+00  3.37986e-01 -2.48286e-01
       H -2.40830e+00  1.15320e+00  9.87712e-01
       H -4.10324e+00  1.84597e+00  8.49032e-02
4
# CELL(abcABC): 1000.00000  1000.00000  1000.00000    90.00000    90.00000    90.00000  Step:          42  Bead:       0 positions{angstrom}  cell{angstrom}
       O -3.15520e+00  1.05510e+00  3.68896e-01
       H -2.81139e+00  3.25636e-01 -2.55484e-01
       H -2.40332e+00  1.16449e+00  9.92462e-01
       H -4.08752e+00  1.83230e+00  9.30695e-02
4
# CELL(abcABC): 1000.00000  1000.00000  1000.00000    90.00000    90.00000    90.00000  Step:          43  Bead:       0 positions{angstrom}  cell{angstrom}
       O -3.15655e+00  1.05591e+00  3.68227e-01
       H -2.80959e+00  3.17461e-01 -2.58752e-01
       H -2.39958e+00  1.17583e+00  9.96988e-01
       H -4.07152e+00  1.81634e+00  1.02420e-01
4
# CELL(abcABC): 1000.00000  1000.00000  1000.00000    90.00000    90.00000    90.00000  Step:          44  Bead:       0 positions{angstrom}  cell{angstrom}
       O -3.15764e+00  1.05666e+00  3.67258e-01
       H -2.80961e+00  3.12568e-01 -2.57915e-01
       H -2.39784e+00  1.18534e+00  9.99935e-01
       H -4.05604e+00  1.79980e+00  1.14026e-01
4
# CELL(abcABC): 1000.00000  1000.00000  1000.00000    90.00000    90.00000    90.00000  Step:          45  Bead:       0 positions{angstrom}  cell{angstrom}
       O -3.15833e+00  1.05733e+00  3.66079e-01
       H -2.81229e+00  3.12009e-01 -2.52923e-01
       H -2.39797e+00  1.19269e+00  1.00050e+00
       H -4.04225e+00  1.78234e+00  1.27179e-01
4
# CELL(abcABC): 1000.00000  1000.00000  1000.00000    90.00000    90.00000    90.00000  Step:          46  Bead:       0 positions{angstrom}  cell{angstrom}
       O -3.15875e+00  1.05793e+00  3.64707e-01
       H -2.81703e+00  3.16134e-01 -2.43822e-01
       H -2.40099e+00  1.19761e+00  9.98759e-01
       H -4.02784e+00  1.76382e+00  1.41603e-01
4
# CELL(abcABC): 1000.00000  1000.00000  1000.00000    90.00000    90.00000    90.00000  Step:          47  Bead:       0 positions{angstrom}  cell{angstrom}
       O -3.15884e+00  1.05834e+00  3.63284e-01
       H -2.82341e+00  3.23498e-01 -2.30580e-01
       H -2.40657e+00  1.20120e+00  9.94298e-01
       H -4.01439e+00  1.74639e+00  1.55412e-01
4
# CELL(abcABC): 1000.00000  1000.00000  1000.00000    90.00000    90.00000    90.00000  Step:          48  Bead:       0 positions{angstrom}  cell{angstrom}
       O -3.15866e+00  1.05879e+00  3.61732e-01
       H -2.83049e+00  3.32307e-01 -2.14177e-01
       H -2.41451e+00  1.20397e+00  9.87495e-01
       H -4.00229e+00  1.72751e+00  1.70440e-01
4
# CELL(abcABC): 1000.00000  1000.00000  1000.00000    90.00000    90.00000    90.00000  Step:          49  Bead:       0 positions{angstrom}  cell{angstrom}
       O -3.15833e+00  1.05928e+00  3.60007e-01
       H -2.83806e+00  3.41671e-01 -1.95681e-01
       H -2.42294e+00  1.20529e+00  9.79729e-01
       H -3.99150e+00  1.70908e+00  1.87086e-01
4
# CELL(abcABC): 1000.00000  1000.00000  1000.00000    90.00000    90.00000    90.00000  Step:          50  Bead:       0 positions{angstrom}  cell{angstrom}
       O -3.15773e+00  1.05995e+00  3.58391e-01
       H -2.84581e+00  3.50329e-01 -1.77610e-01
       H -2.43398e+00  1.20501e+00  9.71639e-01
       H -3.98224e+00  1.69007e+00  2.02764e-01
4
# CELL(abcABC): 1000.00000  1000.00000  1000.00000    90.00000    90.00000    90.00000  Step:          51  Bead:       0 positions{angstrom}  cell{angstrom}
       O -3.15714e+00  1.06082e+00  3.56854e-01
       H -2.85302e+00  3.55706e-01 -1.61859e-01
       H -2.44514e+00  1.20458e+00  9.63953e-01
       H -3.97318e+00  1.67135e+00  2.19088e-01
4
# CELL(abcABC): 1000.00000  1000.00000  1000.00000    90.00000    90.00000    90.00000  Step:          52  Bead:       0 positions{angstrom}  cell{angstrom}
       O -3.15665e+00  1.06207e+00  3.55531e-01
       H -2.85909e+00  3.56180e-01 -1.49472e-01
       H -2.45517e+00  1.20355e+00  9.56736e-01
       H -3.96494e+00  1.65211e+00  2.34925e-01
4
# CELL(abcABC): 1000.00000  1000.00000  1000.00000    90.00000    90.00000    90.00000  Step:          53  Bead:       0 positions{angstrom}  cell{angstrom}
       O -3.15637e+00  1.06360e+00  3.54272e-01
       H -2.86274e+00  3.51369e-01 -1.42280e-01
       H -2.46285e+00  1.20438e+00  9.52852e-01
       H -3.95798e+00  1.63171e+00  2.51593e-01
4
# CELL(abcABC): 1000.00000  1000.00000  1000.00000    90.00000    90.00000    90.00000  Step:          54  Bead:       0 positions{angstrom}  cell{angstrom}
       O -3.15631e+00  1.06551e+00  3.52808e-01
       H -2.86466e+00  3.39834e-01 -1.38339e-01
       H -2.46746e+00  1.20672e+00  9.53200e-01
       H -3.95239e+00  1.61059e+00  2.70546e-01
4
# CELL(abcABC): 1000.00000  1000.00000  1000.00000    90.00000    90.00000    90.00000  Step:          55  Bead:       0 positions{angstrom}  cell{angstrom}
       O -3.15651e+00  1.06764e+00  3.51309e-01
       H -2.86579e+00  3.23669e-01 -1.37210e-01
       H -2.46822e+00  1.21015e+00  9.57862e-01
       H -3.94734e+00  1.58957e+00  2.88559e-01
4
# CELL(abcABC): 1000.00000  1000.00000  1000.00000    90.00000    90.00000    90.00000  Step:          56  Bead:       0 positions{angstrom}  cell{angstrom}
       O -3.15691e+00  1.06981e+00  3.49766e-01
       H -2.86398e+00  3.04767e-01 -1.37870e-01
       H -2.46590e+00  1.21424e+00  9.64574e-01
       H -3.94512e+00  1.56998e+00  3.06999e-01
4
# CELL(abcABC): 1000.00000  1000.00000  1000.00000    90.00000    90.00000    90.00000  Step:          57  Bead:       0 positions{angstrom}  cell{angstrom}
       O -3.15732e+00  1.07187e+00  3.48109e-01
       H -2.86049e+00  2.85577e-01 -1.39044e-01
       H -2.46227e+00  1.21866e+00  9.74530e-01
       H -3.94570e+00  1.55209e+00  3.24514e-01
4
# CELL(abcABC): 1000.00000  1000.00000  1000.00000    90.00000    90.00000    90.00000  Step:          58  Bead:       0 positions{angstrom}  cell{angstrom}
       O -3.15771e+00  1.07377e+00  3.46397e-01
       H -2.85635e+00  2.66792e-01 -1.40196e-01
       H -2.45703e+00  1.22357e+00  9.86235e-01
       H -3.94891e+00  1.53565e+00  3.41134e-01
4
# CELL(abcABC): 1000.00000  1000.00000  1000.00000    90.00000    90.00000    90.00000  Step:          59  Bead:       0 positions{angstrom}  cell{angstrom}
       O -3.15795e+00  1.07534e+00  3.44543e-01
       H -2.85220e+00  2.51052e-01 -1.40070e-01
       H -2.45146e+00  1.22920e+00  9.99373e-01
       H -3.95493e+00  1.52086e+00  3.57296e-01
4
# CELL(abcABC): 1000.00000  1000.00000  1000.00000    90.00000    90.00000    90.00000  Step:          60  Bead:       0 positions{angstrom}  cell{angstrom}
       O -3.15791e+00  1.07660e+00  3.42762e-01
       H -2.85030e+00  2.39184e-01 -1.38015e-01
       H -2.44628e+00  1.23410e+00  1.00948e+00
       H -3.96255e+00  1.50789e+00  3.73406e-01
4
# CELL(abcABC): 1000.00000  1000.00000  1000.00000    90.00000    90.00000    90.00000  Step:          61  Bead:       0 positions{angstrom}  cell{angstrom}
       O -3.15761e+00  1.07750e+00  3.41089e-01
       H -2.84890e+00  2.31840e-01 -1.34036e-01
       H -2.44185e+00  1.23837e+00  1.01580e+00
       H -3.97313e+00  1.49660e+00  3.89664e-01
4
# CELL(abcABC): 1000.00000  1000.00000  1000.00000    90.00000    90.00000    90.00000  Step:          62  Bead:       0 positions{angstrom}  cell{angstrom}
       O -3.15685e+00  1.07810e+00  3.39677e-01
       H -2.84972e+00  2.29101e-01 -1.28269e-01
       H -2.44121e+00  1.24154e+00  1.01837e+00
       H -3.98509e+00  1.48677e+00  4.03732e-01
4
# CELL(abcABC): 1000.00000  1000.00000  1000.00000    90.00000    90.00000    90.00000  Step:          63  Bead:       0 positions{angstrom}  cell{angstrom}
       O -3.15564e+00  1.07820e+00  3.38275e-01
       H -2.85157e+00  2.32760e-01 -1.19961e-01
       H -2.44367e+00  1.24323e+00  1.01724e+00
       H -3.99994e+00  1.47979e+00  4.18818e-01
4
# CELL(abcABC): 1000.00000  1000.00000  1000.00000    90.00000    90.00000    90.00000  Step:          64  Bead:       0 positions{angstrom}  cell{angstrom}
       O -3.15413e+00  1.07796e+00  3.37026e-01
       H -2.85328e+00  2.41580e-01 -1.09076e-01
       H -2.44840e+00  1.24394e+00  1.01265e+00
       H -4.01755e+00  1.47412e+00  4.32354e-01
4
# CELL(abcABC): 1000.00000  1000.00000  1000.00000    90.00000    90.00000    90.00000  Step:          65  Bead:       0 positions{angstrom}  cell{angstrom}
       O -3.15235e+00  1.07738e+00  3.36020e-01
       H -2.85645e+00  2.54813e-01 -9.84707e-02
       H -2.45454e+00  1.24529e+00  1.00483e+00
       H -4.03635e+00  1.46866e+00  4.45543e-01
4
# CELL(abcABC): 1000.00000  1000.00000  1000.00000    90.00000    90.00000    90.00000  Step:          66  Bead:       0 positions{angstrom}  cell{angstrom}
       O -3.15045e+00  1.07653e+00  3.35165e-01
       H -2.85982e+00  2.72809e-01 -8.74117e-02
       H -2.46176e+00  1.24480e+00  9.94954e-01
       H -4.05591e+00  1.46463e+00  4.57918e-01
4
# CELL(abcABC): 1000.00000  1000.00000  1000.00000    90.00000    90.00000    90.00000  Step:          67  Bead:       0 positions{angstrom}  cell{angstrom}
       O -3.14848e+00  1.07573e+00  3.34581e-01
       H -2.86221e+00  2.89813e-01 -7.88275e-02
       H -2.46858e+00  1.24440e+00  9.84236e-01
       H -4.07798e+00  1.46083e+00  4.69327e-01
4
# CELL(abcABC): 1000.00000  1000.00000  1000.00000    90.00000    90.00000    90.00000  Step:          68  Bead:       0 positions{angstrom}  cell{angstrom}
       O -3.14669e+00  1.07499e+00  3.34440e-01
       H -2.86236e+00  3.03887e-01 -7.36740e-02
       H -2.47390e+00  1.24450e+00  9.71708e-01
       H -4.10091e+00  1.45841e+00  4.78947e-01
4
# CELL(abcABC): 1000.00000  1000.00000  1000.00000    90.00000    90.00000    90.00000  Step:          69  Bead:       0 positions{angstrom}  cell{angstrom}
       O -3.14515e+00  1.07459e+00  3.34417e-01
       H -2.86051e+00  3.11547e-01 -7.12781e-02
       H -2.47733e+00  1.24559e+00  9.61133e-01
       H -4.12388e+00  1.45594e+00  4.87487e-01
4
# CELL(abcABC): 1000.00000  1000.00000  1000.00000    90.00000    90.00000    90.00000  Step:          70  Bead:       0 positions{angstrom}  cell{angstrom}
       O -3.14418e+00  1.07434e+00  3.34674e-01
       H -2.85546e+00  3.13648e-01 -7.48752e-02
       H -2.47678e+00  1.24879e+00  9.52393e-01
       H -4.14483e+00  1.45454e+00  4.95746e-01
4
# CELL(abcABC): 1000.00000  1000.00000  1000.00000    90.00000    90.00000    90.00000  Step:          71  Bead:       0 positions{angstrom}  cell{angstrom}
       O -3.14366e+00  1.07444e+00  3.35233e-01
       H -2.84829e+00  3.08595e-01 -8.48632e-02
       H -2.47215e+00  1.25311e+00  9.45921e-01
       H -4.16498e+00  1.45383e+00  5.03330e-01
4
# CELL(abcABC): 1000.00000  1000.00000  1000.00000    90.00000    90.00000    90.00000  Step:          72  Bead:       0 positions{angstrom}  cell{angstrom}
       O -3.14365e+00  1.07458e+00  3.35912e-01
       H -2.83851e+00  2.99358e-01 -9.86402e-02
       H -2.46262e+00  1.25930e+00  9.42980e-01
       H -4.18443e+00  1.45461e+00  5.09274e-01
4
# CELL(abcABC): 1000.00000  1000.00000  1000.00000    90.00000    90.00000    90.00000  Step:          73  Bead:       0 positions{angstrom}  cell{angstrom}
       O -3.14399e+00  1.07477e+00  3.36780e-01
       H -2.82743e+00  2.87807e-01 -1.15253e-01
       H -2.44903e+00  1.26740e+00  9.42223e-01
       H -4.20358e+00  1.45506e+00  5.12857e-01
4
# CELL(abcABC): 1000.00000  1000.00000  1000.00000    90.00000    90.00000    90.00000  Step:          74  Bead:       0 positions{angstrom}  cell{angstrom}
       O -3.14465e+00  1.07478e+00  3.37897e-01
       H -2.81548e+00  2.76612e-01 -1.34312e-01
       H -2.43257e+00  1.27669e+00  9.41376e-01
       H -4.22163e+00  1.45675e+00  5.15029e-01
4
# CELL(abcABC): 1000.00000  1000.00000  1000.00000    90.00000    90.00000    90.00000  Step:          75  Bead:       0 positions{angstrom}  cell{angstrom}
       O -3.14528e+00  1.07460e+00  3.39087e-01
       H -2.80428e+00  2.66879e-01 -1.53604e-01
       H -2.41523e+00  1.28607e+00  9.41168e-01
       H -4.24018e+00  1.45989e+00  5.15644e-01
4
# CELL(abcABC): 1000.00000  1000.00000  1000.00000    90.00000    90.00000    90.00000  Step:          76  Bead:       0 positions{angstrom}  cell{angstrom}
       O -3.14599e+00  1.07400e+00  3.40212e-01
       H -2.79321e+00  2.61537e-01 -1.70228e-01
       H -2.39799e+00  1.29569e+00  9.39803e-01
       H -4.25722e+00  1.46516e+00  5.15772e-01
4
# CELL(abcABC): 1000.00000  1000.00000  1000.00000    90.00000    90.00000    90.00000  Step:          77  Bead:       0 positions{angstrom}  cell{angstrom}
       O -3.14650e+00  1.07304e+00  3.41356e-01
       H -2.78365e+00  2.62299e-01 -1.84350e-01
       H -2.38246e+00  1.30530e+00  9.36868e-01
       H -4.27416e+00  1.47015e+00  5.14677e-01
4
# CELL(abcABC): 1000.00000  1000.00000  1000.00000    90.00000    90.00000    90.00000  Step:          78  Bead:       0 positions{angstrom}  cell{angstrom}
       O -3.14676e+00  1.07175e+00  3.42721e-01
       H -2.77701e+00  2.68056e-01 -1.96363e-01
       H -2.36835e+00  1.31483e+00  9.30829e-01
       H -4.29084e+00  1.47532e+00  5.11062e-01
4
# CELL(abcABC): 1000.00000  1000.00000  1000.00000    90.00000    90.00000    90.00000  Step:          79  Bead:       0 positions{angstrom}  cell{angstrom}
       O -3.14682e+00  1.07025e+00  3.44114e-01
       H -2.77290e+00  2.80056e-01 -2.03767e-01
       H -2.35582e+00  1.32242e+00  9.21326e-01
       H -4.30640e+00  1.47942e+00  5.05854e-01
4
# CELL(abcABC): 1000.00000  1000.00000  1000.00000    90.00000    90.00000    90.00000  Step:          80  Bead:       0 positions{angstrom}  cell{angstrom}
       O -3.14672e+00  1.06853e+00  3.45467e-01
       H -2.77025e+00  2.97620e-01 -2.07885e-01
       H -2.34610e+00  1.32841e+00  9.09477e-01
       H -4.32049e+00  1.48316e+00  5.00342e-01
4
# CELL(abcABC): 1000.00000  1000.00000  1000.00000    90.00000    90.00000    90.00000  Step:          81  Bead:       0 positions{angstrom}  cell{angstrom}
       O -3.14641e+00  1.06650e+00  3.46963e-01
       H -2.76713e+00  3.20478e-01 -2.09745e-01
       H -2.34031e+00  1.33485e+00  8.94529e-01
       H -4.33428e+00  1.48611e+00  4.93414e-01
4
# CELL(abcABC): 1000.00000  1000.00000  1000.00000    90.00000    90.00000    90.00000  Step:          82  Bead:       0 positions{angstrom}  cell{angstrom}
       O -3.14587e+00  1.06452e+00  3.48458e-01
       H -2.76452e+00  3.45916e-01 -2.08693e-01
       H -2.33739e+00  1.33871e+00  8.76591e-01
       H -4.34831e+00  1.48828e+00  4.86556e-01
4
# CELL(abcABC): 1000.00000  1000.00000  1000.00000    90.00000    90.00000    90.00000  Step:          83  Bead:       0 positions{angstrom}  cell{angstrom}
       O -3.14521e+00  1.06248e+00  3.50074e-01
       H -2.76249e+00  3.73294e-01 -2.06165e-01
       H -2.33726e+00  1.34180e+00  8.56355e-01
       H -4.36094e+00  1.49014e+00  4.78626e-01
4
# CELL(abcABC): 1000.00000  1000.00000  1000.00000    90.00000    90.00000    90.00000  Step:          84  Bead:       0 positions{angstrom}  cell{angstrom}
       O -3.14447e+00  1.06057e+00  3.51872e-01
       H -2.75924e+00  3.99450e-01 -2.05084e-01
       H -2.34022e+00  1.34429e+00  8.34525e-01
       H -4.37304e+00  1.49188e+00  4.70828e-01
4
# CELL(abcABC): 1000.00000  1000.00000  1000.00000    90.00000    90.00000    90.00000  Step:          85  Bead:       0 positions{angstrom}  cell{angstrom}