6
# CELL(abcABC): 1000.00000  1000.00000  1000.00000    90.00000    90.00000    90.00000  Step:         470  Bead:       0 positions{angstrom}  cell{angstrom}
       C -7.16934e-01  3.04433e+00 -6.00474e-01
       H -1.29496e+00  3.62412e+00 -1.39801e+00
       H  2.05736e-01  3.56064e+00 -2.91140e-01
       H -4.48213e-01  2.08197e+00 -1.00925e+00
       O -1.54730e+00  2.95025e+00  5.15643e-01
       H -1.86857e+00  2.46735e+00  1.35502e+00
