4
# CELL(abcABC): 1000.00000  1000.00000  1000.00000    90.00000    90.00000    90.00000  Step:           0  Bead:       0 positions{angstrom}  cell{angstrom}
       O -3.15141e+00  1.05987e+00  3.45246e-01
       H -2.75126e+00  4.22683e-01  9.11417e-01
       H -3.19361e+00  1.83934e+00  8.53632e-01
       H -3.41751e+00  9.84770e-01 -5.59634e-01
4
# CELL(abcABC): 1000.00000  1000.00000  1000.00000    90.00000    90.00000    90.00000  Step:           1  Bead:       0 positions{angstrom}  cell{angstrom}
       O -3.14972e+00  1.06013e+00  3.44703e-01
       H -2.76085e+00  4.14741e-01  9.15579e-01
       H -3.19367e+00  1.84011e+00  8.55038e-01
       H -3.43473e+00  9.87851e-01 -5.56584e-01
4
# CELL(abcABC): 1000.00000  1000.00000  1000.00000    90.00000    90.00000    90.00000  Step:           2  Bead:       0 positions{angstrom}  cell{angstrom}
       O -3.14808e+00  1.06030e+00  3.44180e-01
       H -2.77065e+00  4.05917e-01  9.19785e-01
       H -3.19250e+00  1.84350e+00  8.56871e-01
       H -3.45212e+00  9.90548e-01 -5.54319e-01
4
# CELL(abcABC): 1000.00000  1000.00000  1000.00000    90.00000    90.00000    90.00000  Step:           3  Bead:       0 positions{angstrom}  cell{angstrom}
       O -3.14636e+00  1.06045e+00  3.43644e-01
       H -2.78019e+00  3.95285e-01  9.24990e-01
       H -3.19190e+00  1.85013e+00  8.59534e-01
       H -3.47045e+00  9.92132e-01 -5.53687e-01
4
# CELL(abcABC): 1000.00000  1000.00000  1000.00000    90.00000    90.00000    90.00000  Step:           4  Bead:       0 positions{angstrom}  cell{angstrom}
       O -3.14462e+00  1.06063e+00  3.43307e-01
       H -2.79055e+00  3.83478e-01  9.27870e-01
       H -3.19085e+00  1.85866e+00  8.61507e-01
       H -3.48883e+00  9.92656e-01 -5.53187e-01
4
# CELL(abcABC): 1000.00000  1000.00000  1000.00000    90.00000    90.00000    90.00000  Step:           5  Bead:       0 positions{angstrom}  cell{angstrom}
       O -3.14273e+00  1.06069e+00  3.43175e-01
       H -2.80254e+00  3.72304e-01  9.28893e-01
       H -3.19048e+00  1.86860e+00  8.63787e-01
       H -3.50721e+00  9.92873e-01 -5.54384e-01
4
# CELL(abcABC): 1000.00000  1000.00000  1000.00000    90.00000    90.00000    90.00000  Step:           6  Bead:       0 positions{angstrom}  cell{angstrom}
       O -3.14069e+00  1.06088e+00  3.43271e-01
       H -2.81540e+00  3.62426e-01  9.27225e-01
       H -3.19063e+00  1.87604e+00  8.63876e-01
       H -3.52650e+00  9.92251e-01 -5.54336e-01
4
# CELL(abcABC): 1000.00000  1000.00000  1000.00000    90.00000    90.00000    90.00000  Step:           7  Bead:       0 positions{angstrom}  cell{angstrom}
       O -3.13869e+00  1.06106e+00  3.43361e-01
       H -2.82769e+00  3.53805e-01  9.25160e-01
       H -3.19069e+00  1.88140e+00  8.63350e-01
       H -3.54586e+00  9.92661e-01 -5.53173e-01
4
# CELL(abcABC): 1000.00000  1000.00000  1000.00000    90.00000    90.00000    90.00000  Step:           8  Bead:       0 positions{angstrom}  cell{angstrom}
       O -3.13680e+00  1.06136e+00  3.43669e-01
       H -2.83974e+00  3.46603e-01  9.20866e-01
       H -3.18935e+00  1.88350e+00  8.60702e-01
       H -3.56524e+00  9.93055e-01 -5.51124e-01
4
# CELL(abcABC): 1000.00000  1000.00000  1000.00000    90.00000    90.00000    90.00000  Step:           9  Bead:       0 positions{angstrom}  cell{angstrom}
       O -3.13500e+00  1.06185e+00  3.43966e-01
       H -2.85224e+00  3.39933e-01  9.16382e-01
       H -3.18642e+00  1.88322e+00  8.57360e-01
       H -3.58424e+00  9.92196e-01 -5.48002e-01
4
# CELL(abcABC): 1000.00000  1000.00000  1000.00000    90.00000    90.00000    90.00000  Step:          10  Bead:       0 positions{angstrom}  cell{angstrom}
       O -3.13328e+00  1.06237e+00  3.44447e-01
       H -2.86482e+00  3.34561e-01  9.10071e-01
       H -3.18266e+00  1.88119e+00  8.52315e-01
       H -3.60265e+00  9.91353e-01 -5.44292e-01
4
# CELL(abcABC): 1000.00000  1000.00000  1000.00000    90.00000    90.00000    90.00000  Step:          11  Bead:       0 positions{angstrom}  cell{angstrom}
       O -3.13168e+00  1.06297e+00  3.45067e-01
       H -2.87702e+00  3.31035e-01  9.01776e-01
       H -3.17945e+00  1.87687e+00  8.46358e-01
       H -3.61911e+00  9.89609e-01 -5.39880e-01
4
# CELL(abcABC): 1000.00000  1000.00000  1000.00000    90.00000    90.00000    90.00000  Step:          12  Bead:       0 positions{angstrom}  cell{angstrom}
       O -3.13037e+00  1.06369e+00  3.45675e-01
       H -2.88737e+00  3.28070e-01  8.93035e-01
       H -3.17559e+00  1.87005e+00  8.39541e-01
       H -3.63341e+00  9.88051e-01 -5.33966e-01
4
# CELL(abcABC): 1000.00000  1000.00000  1000.00000    90.00000    90.00000    90.00000  Step:          13  Bead:       0 positions{angstrom}  cell{angstrom}
       O -3.12933e+00  1.06442e+00  3.46083e-01
       H -2.89677e+00  3.26034e-01  8.84990e-01
       H -3.16973e+00  1.86296e+00  8.33712e-01
       H -3.64644e+00  9.85526e-01 -5.26577e-01
4
# CELL(abcABC): 1000.00000  1000.00000  1000.00000    90.00000    90.00000    90.00000  Step:          14  Bead:       0 positions{angstrom}  cell{angstrom}
       O -3.12857e+00  1.06509e+00  3.46183e-01
       H -2.90364e+00  3.23645e-01  8.78387e-01
       H -3.16268e+00  1.85757e+00  8.29681e-01
       H -3.65854e+00  9.82759e-01 -5.17531e-01
4
# CELL(abcABC): 1000.00000  1000.00000  1000.00000    90.00000    90.00000    90.00000  Step:          15  Bead:       0 positions{angstrom}  cell{angstrom}
       O -3.12800e+00  1.06553e+00  3.45729e-01
       H -2.91120e+00  3.20450e-01  8.75357e-01
       H -3.15557e+00  1.85483e+00  8.28323e-01
       H -3.66719e+00  9.81593e-01 -5.05933e-01
4
# CELL(abcABC): 1000.00000  1000.00000  1000.00000    90.00000    90.00000    90.00000  Step:          16  Bead:       0 positions{angstrom}  cell{angstrom}
       O -3.12771e+00  1.06576e+00  3.44916e-01
       H -2.91646e+00  3.16627e-01  8.73513e-01
       H -3.14803e+00  1.85584e+00  8.29797e-01
       H -3.67412e+00  9.80847e-01 -4.92652e-01
4
# CELL(abcABC): 1000.00000  1000.00000  1000.00000    90.00000    90.00000    90.00000  Step:          17  Bead:       0 positions{angstrom}  cell{angstrom}
       O -3.12755e+00  1.06582e+00  3.43768e-01
       H -2.91984e+00  3.13228e-01  8.73318e-01
       H -3.14091e+00  1.86001e+00  8.32891e-01
       H -3.68039e+00  9.79117e-01 -4.77336e-01
4
# CELL(abcABC): 1000.00000  1000.00000  1000.00000    90.00000    90.00000    90.00000  Step:          18  Bead:       0 positions{angstrom}  cell{angstrom}
       O -3.12755e+00  1.06566e+00  3.42357e-01
       H -2.92319e+00  3.10947e-01  8.74498e-01
       H -3.13214e+00  1.86594e+00  8.37929e-01
       H -3.68582e+00  9.78074e-01 -4.61147e-01
4
# CELL(abcABC): 1000.00000  1000.00000  1000.00000    90.00000    90.00000    90.00000  Step:          19  Bead:       0 positions{angstrom}  cell{angstrom}
       O -3.12781e+00  1.06545e+00  3.40759e-01
       H -2.92516e+00  3.09099e-01  8.77058e-01
       H -3.12358e+00  1.87197e+00  8.43509e-01
       H -3.68825e+00  9.77078e-01 -4.43933e-01
4
# CELL(abcABC): 1000.00000  1000.00000  1000.00000    90.00000    90.00000    90.00000  Step:          20  Bead:       0 positions{angstrom}  cell{angstrom}
       O -3.12821e+00  1.06527e+00  3.39164e-01
       H -2.92619e+00  3.08587e-01  8.78742e-01
       H -3.11545e+00  1.87768e+00  8.49697e-01
       H -3.68898e+00  9.74814e-01 -4.26478e-01
4
# CELL(abcABC): 1000.00000  1000.00000  1000.00000    90.00000    90.00000    90.00000  Step:          21  Bead:       0 positions{angstrom}  cell{angstrom}
       O -3.12881e+00  1.06512e+00  3.37699e-01
       H -2.92685e+00  3.08614e-01  8.79435e-01
       H -3.10523e+00  1.88250e+00  8.56384e-01
       H -3.68909e+00  9.72397e-01 -4.10601e-01
4
# CELL(abcABC): 1000.00000  1000.00000  1000.00000    90.00000    90.00000    90.00000  Step:          22  Bead:       0 positions{angstrom}  cell{angstrom}
       O -3.12956e+00  1.06498e+00  3.36494e-01
       H -2.92791e+00  3.08855e-01  8.81011e-01
       H -3.09237e+00  1.88524e+00  8.60253e-01
       H -3.68887e+00  9.71631e-01 -3.96932e-01
4
# CELL(abcABC): 1000.00000  1000.00000  1000.00000    90.00000    90.00000    90.00000  Step:          23  Bead:       0 positions{angstrom}  cell{angstrom}
       O -3.13043e+00  1.06494e+00  3.35731e-01
       H -2.92818e+00  3.10797e-01  8.81731e-01
       H -3.07808e+00  1.88566e+00  8.62772e-01
       H -3.68920e+00  9.69795e-01 -3.88046e-01
4
# CELL(abcABC): 1000.00000  1000.00000  1000.00000    90.00000    90.00000    90.00000  Step:          24  Bead:       0 positions{angstrom}  cell{angstrom}
       O -3.13137e+00  1.06495e+00  3.35277e-01
       H -2.92726e+00  3.12813e-01  8.82000e-01
       H -3.06289e+00  1.88412e+00  8.63477e-01
       H -3.69040e+00  9.69243e-01 -3.81816e-01
4
# CELL(abcABC): 1000.00000  1000.00000  1000.00000    90.00000    90.00000    90.00000  Step:          25  Bead:       0 positions{angstrom}  cell{angstrom}
       O -3.13229e+00  1.06518e+00  3.35056e-01
       H -2.92582e+00  3.14784e-01  8.82672e-01
       H -3.04759e+00  1.87897e+00  8.62178e-01
       H -3.69244e+00  9.68808e-01 -3.77686e-01
4
# CELL(abcABC): 1000.00000  1000.00000  1000.00000    90.00000    90.00000    90.00000  Step:          26  Bead:       0 positions{angstrom}  cell{angstrom}
       O -3.13321e+00  1.06560e+00  3.35130e-01
       H -2.92383e+00  3.16955e-01  8.82186e-01
       H -3.03161e+00  1.87102e+00  8.58642e-01
       H -3.69578e+00  9.67877e-01 -3.74832e-01
4
# CELL(abcABC): 1000.00000  1000.00000  1000.00000    90.00000    90.00000    90.00000  Step:          27  Bead:       0 positions{angstrom}  cell{angstrom}
       O -3.13424e+00  1.06607e+00  3.35518e-01
       H -2.92149e+00  3.20772e-01  8.80586e-01
       H -3.01525e+00  1.86055e+00  8.53138e-01
       H -3.69827e+00  9.67008e-01 -3.73900e-01
4
# CELL(abcABC): 1000.00000  1000.00000  1000.00000    90.00000    90.00000    90.00000  Step:          28  Bead:       0 positions{angstrom}  cell{angstrom}
       O -3.13521e+00  1.06656e+00  3.36077e-01
       H -2.91960e+00  3.23364e-01  8.78548e-01
       H -2.99791e+00  1.84975e+00  8.46894e-01
       H -3.70203e+00  9.67492e-01 -3.74479e-01
4
# CELL(abcABC): 1000.00000  1000.00000  1000.00000    90.00000    90.00000    90.00000  Step:          29  Bead:       0 positions{angstrom}  cell{angstrom}
       O -3.13624e+00  1.06694e+00  3.36815e-01
       H -2.91639e+00  3.26230e-01  8.74926e-01
       H -2.98101e+00  1.83981e+00  8.40384e-01
       H -3.70585e+00  9.68520e-01 -3.76073e-01
4
# CELL(abcABC): 1000.00000  1000.00000  1000.00000    90.00000    90.00000    90.00000  Step:          30  Bead:       0 positions{angstrom}  cell{angstrom}
       O -3.13731e+00  1.06708e+00  3.37609e-01
       H -2.91208e+00  3.29599e-01  8.72123e-01
       H -2.96375e+00  1.83204e+00  8.34745e-01
       H -3.71035e+00  9.70699e-01 -3.80232e-01
4
# CELL(abcABC): 1000.00000  1000.00000  1000.00000    90.00000    90.00000    90.00000  Step:          31  Bead:       0 positions{angstrom}  cell{angstrom}
       O -3.13859e+00  1.06693e+00  3.38488e-01
       H -2.90541e+00  3.32163e-01  8.69804e-01
       H -2.94514e+00  1.82861e+00  8.29433e-01
       H -3.71525e+00  9.74011e-01 -3.86551e-01
4
# CELL(abcABC): 1000.00000  1000.00000  1000.00000    90.00000    90.00000    90.00000  Step:          32  Bead:       0 positions{angstrom}  cell{angstrom}
       O -3.13995e+00  1.06668e+00  3.39176e-01
       H -2.89885e+00  3.31545e-01  8.68539e-01
       H -2.92526e+00  1.83004e+00  8.26413e-01
       H -3.72025e+00  9.77138e-01 -3.93190e-01
4
# CELL(abcABC): 1000.00000  1000.00000  1000.00000    90.00000    90.00000    90.00000  Step:          33  Bead:       0 positions{angstrom}  cell{angstrom}
       O -3.14137e+00  1.06641e+00  3.39755e-01
       H -2.89217e+00  3.28941e-01  8.68836e-01
       H -2.90443e+00  1.83358e+00  8.24609e-01
       H -3.72520e+00  9.80532e-01 -4.00867e-01
4
# CELL(abcABC): 1000.00000  1000.00000  1000.00000    90.00000    90.00000    90.00000  Step:          34  Bead:       0 positions{angstrom}  cell{angstrom}
       O -3.14272e+00  1.06606e+00  3.40472e-01
       H -2.88463e+00  3.25165e-01  8.68953e-01
       H -2.88515e+00  1.83879e+00  8.23281e-01
       H -3.73062e+00  9.84571e-01 -4.11039e-01
4
# CELL(abcABC): 1000.00000  1000.00000  1000.00000    90.00000    90.00000    90.00000  Step:          35  Bead:       0 positions{angstrom}  cell{angstrom}
       O -3.14413e+00  1.06562e+00  3.41281e-01
       H -2.87520e+00  3.20755e-01  8.67886e-01
       H -2.86725e+00  1.84602e+00  8.22131e-01
       H -3.73550e+00  9.88753e-01 -4.21659e-01
4
# CELL(abcABC): 1000.00000  1000.00000  1000.00000    90.00000    90.00000    90.00000  Step:          36  Bead:       0 positions{angstrom}  cell{angstrom}
       O -3.14558e+00  1.06508e+00  3.42249e-01
       H -2.86561e+00  3.16301e-01  8.65437e-01
       H -2.84983e+00  1.85441e+00  8.18960e-01
       H -3.73955e+00  9.93383e-01 -4.31406e-01
4
# CELL(abcABC): 1000.00000  1000.00000  1000.00000    90.00000    90.00000    90.00000  Step:          37  Bead:       0 positions{angstrom}  cell{angstrom}
       O -3.14705e+00  1.06463e+00  3.43283e-01
       H -2.85568e+00  3.13051e-01  8.63580e-01
       H -2.83297e+00  1.86086e+00  8.13510e-01
       H -3.74290e+00  9.97278e-01 -4.40517e-01
4
# CELL(abcABC): 1000.00000  1000.00000  1000.00000    90.00000    90.00000    90.00000  Step:          38  Bead:       0 positions{angstrom}  cell{angstrom}
       O -3.14832e+00  1.06425e+00  3.44677e-01
       H -2.84723e+00  3.10364e-01  8.59131e-01
       H -2.81740e+00  1.86402e+00  8.05598e-01
       H -3.74678e+00  1.00285e+00 -4.50280e-01
4
# CELL(abcABC): 1000.00000  1000.00000  1000.00000    90.00000    90.00000    90.00000  Step:          39  Bead:       0 positions{angstrom}  cell{angstrom}
       O -3.14969e+00  1.06409e+00  3.46147e-01
       H -2.83865e+00  3.08029e-01  8.53752e-01
       H -2.80290e+00  1.86333e+00  7.96323e-01
       H -3.74805e+00  1.00849e+00 -4.58954e-01
4
# CELL(abcABC): 1000.00000  1000.00000  1000.00000    90.00000    90.00000    90.00000  Step:          40  Bead:       0 positions{angstrom}  cell{angstrom}
       O -3.15106e+00  1.06397e+00  3.47580e-01
       H -2.83072e+00  3.06898e-01  8.47903e-01
       H -2.78960e+00  1.86005e+00  7.86575e-01
       H -3.74769e+00  1.01482e+00 -4.66106e-01
4
# CELL(abcABC): 1000.00000  1000.00000  1000.00000    90.00000    90.00000    90.00000  Step:          41  Bead:       0 positions{angstrom}  cell{angstrom}
       O -3.15236e+00  1.06390e+00  3.49066e-01
       H -2.82384e+00  3.07544e-01  8.40285e-01
       H -2.77708e+00  1.85461e+00  7.75329e-01
       H -3.74642e+00  1.02072e+00 -4.70840e-01
4
# CELL(abcABC): 1000.00000  1000.00000  1000.00000    90.00000    90.00000    90.00000  Step:          42  Bead:       0 positions{angstrom}  cell{angstrom}
       O -3.15373e+00  1.06403e+00  3.50659e-01
       H -2.81620e+00  3.07098e-01  8.31230e-01
       H -2.76554e+00  1.84713e+00  7.63036e-01
       H -3.74387e+00  1.02654e+00 -4.74777e-01
4
# CELL(abcABC): 1000.00000  1000.00000  1000.00000    90.00000    90.00000    90.00000  Step:          43  Bead:       0 positions{angstrom}  cell{angstrom}
       O -3.15506e+00  1.06414e+00  3.52270e-01
       H -2.80946e+00  3.08013e-01  8.20903e-01
       H -2.75480e+00  1.83962e+00  7.50073e-01
       H -3.74024e+00  1.03132e+00 -4.77055e-01
4
# CELL(abcABC): 1000.00000  1000.00000  1000.00000    90.00000    90.00000    90.00000  Step:          44  Bead:       0 positions{angstrom}  cell{angstrom}
       O -3.15636e+00  1.06432e+00  3.53831e-01
       H -2.80300e+00  3.08391e-01  8.09342e-01
       H -2.74462e+00  1.83111e+00  7.36242e-01
       H -3.73625e+00  1.03665e+00 -4.76447e-01
4
# CELL(abcABC): 1000.00000  1000.00000  1000.00000    90.00000    90.00000    90.00000  Step:          45  Bead:       0 positions{angstrom}  cell{angstrom}
       O -3.15758e+00  1.06452e+00  3.55351e-01
       H -2.79745e+00  3.08630e-01  7.96808e-01
       H -2.73394e+00  1.82232e+00  7.21745e-01
       H -3.73303e+00  1.04203e+00 -4.73545e-01
4
# CELL(abcABC): 1000.00000  1000.00000  1000.00000    90.00000    90.00000    90.00000  Step:          46  Bead:       0 positions{angstrom}  cell{angstrom}
       O -3.15890e+00  1.06471e+00  3.56754e-01
       H -2.79211e+00  3.08760e-01  7.83853e-01
       H -2.72310e+00  1.81395e+00  7.07421e-01
       H -3.72822e+00  1.04723e+00 -4.68531e-01
4
# CELL(abcABC): 1000.00000  1000.00000  1000.00000    90.00000    90.00000    90.00000  Step:          47  Bead:       0 positions{angstrom}  cell{angstrom}
       O -3.16029e+00  1.06473e+00  3.58093e-01
       H -2.78665e+00  3.07442e-01  7.71463e-01
       H -2.71136e+00  1.80795e+00  6.93287e-01
       H -3.72347e+00  1.05421e+00 -4.63254e-01
4
# CELL(abcABC): 1000.00000  1000.00000  1000.00000    90.00000    90.00000    90.00000  Step:          48  Bead:       0 positions{angstrom}  cell{angstrom}
       O -3.16175e+00  1.06476e+00  3.59214e-01
       H -2.78047e+00  3.03624e-01  7.59871e-01
       H -2.69860e+00  1.80517e+00  6.79690e-01
       H -3.71921e+00  1.06030e+00 -4.55859e-01
4
# CELL(abcABC): 1000.00000  1000.00000  1000.00000    90.00000    90.00000    90.00000  Step:          49  Bead:       0 positions{angstrom}  cell{angstrom}
       O -3.16333e+00  1.06471e+00  3.60023e-01
       H -2.77404e+00  2.97939e-01  7.49352e-01
       H -2.68361e+00  1.80474e+00  6.67482e-01
       H -3.71550e+00  1.06723e+00 -4.45984e-01
4
# CELL(abcABC): 1000.00000  1000.00000  1000.00000    90.00000    90.00000    90.00000  Step:          50  Bead:       0 positions{angstrom}  cell{angstrom}
       O -3.16477e+00  1.06466e+00  3.60773e-01
       H -2.76798e+00  2.91336e-01  7.38878e-01
       H -2.66963e+00  1.80568e+00  6.56406e-01
       H -3.71272e+00  1.07379e+00 -4.36329e-01
4
# CELL(abcABC): 1000.00000  1000.00000  1000.00000    90.00000    90.00000    90.00000  Step:          51  Bead:       0 positions{angstrom}  cell{angstrom}
       O -3.16617e+00  1.06453e+00  3.61420e-01
       H -2.76264e+00  2.83752e-01  7.28110e-01
       H -2.65577e+00  1.80835e+00  6.45973e-01
       H -3.70967e+00  1.08067e+00 -4.25407e-01
4
# CELL(abcABC): 1000.00000  1000.00000  1000.00000    90.00000    90.00000    90.00000  Step:          52  Bead:       0 positions{angstrom}  cell{angstrom}
       O -3.16743e+00  1.06447e+00  3.62115e-01
       H -2.75841e+00  2.75927e-01  7.17307e-01
       H -2.64259e+00  1.81101e+00  6.34886e-01
       H -3.70714e+00  1.08686e+00 -4.14545e-01
4
# CELL(abcABC): 1000.00000  1000.00000  1000.00000    90.00000    90.00000    90.00000  Step:          53  Bead:       0 positions{angstrom}  cell{angstrom}
       O -3.16850e+00  1.06436e+00  3.62757e-01
       H -2.75461e+00  2.69145e-01  7.05406e-01
       H -2.63072e+00  1.81488e+00  6.24689e-01
       H -3.70574e+00  1.09148e+00 -4.02641e-01
4
# CELL(abcABC): 1000.00000  1000.00000  1000.00000    90.00000    90.00000    90.00000  Step:          54  Bead:       0 positions{angstrom}  cell{angstrom}
       O -3.16929e+00  1.06436e+00  3.63149e-01
       H -2.75211e+00  2.62403e-01  6.94374e-01
       H -2.62085e+00  1.81843e+00  6.15356e-01
       H -3.70566e+00  1.09472e+00 -3.88496e-01
4
# CELL(abcABC): 1000.00000  1000.00000  1000.00000    90.00000    90.00000    90.00000  Step:          55  Bead:       0 positions{angstrom}  cell{angstrom}
       O -3.16979e+00  1.06441e+00  3.63546e-01
       H -2.75155e+00  2.57138e-01  6.83907e-01
       H -2.61291e+00  1.82042e+00  6.06693e-01
       H -3.70619e+00  1.09716e+00 -3.75662e-01
4
# CELL(abcABC): 1000.00000  1000.00000  1000.00000    90.00000    90.00000    90.00000  Step:          56  Bead:       0 positions{angstrom}  cell{angstrom}
       O -3.17000e+00  1.06448e+00  3.63997e-01
       H -2.75021e+00  2.53684e-01  6.73914e-01
       H -2.60747e+00  1.82004e+00  5.96919e-01
       H -3.70965e+00  1.09987e+00 -3.63065e-01
4
# CELL(abcABC): 1000.00000  1000.00000  1000.00000    90.00000    90.00000    90.00000  Step:          57  Bead:       0 positions{angstrom}  cell{angstrom}
       O -3.16983e+00  1.06456e+00  3.64464e-01
       H -2.74857e+00  2.52450e-01  6.64423e-01
       H -2.60542e+00  1.81699e+00  5.88210e-01
       H -3.71600e+00  1.10287e+00 -3.52274e-01
4
# CELL(abcABC): 1000.00000  1000.00000  1000.00000    90.00000    90.00000    90.00000  Step:          58  Bead:       0 positions{angstrom}  cell{angstrom}
       O -3.16939e+00  1.06472e+00  3.64990e-01
       H -2.74692e+00  2.51998e-01  6.54908e-01
       H -2.60500e+00  1.81202e+00  5.80425e-01
       H -3.72497e+00  1.10574e+00 -3.43326e-01
4
# CELL(abcABC): 1000.00000  1000.00000  1000.00000    90.00000    90.00000    90.00000  Step:          59  Bead:       0 positions{angstrom}  cell{angstrom}
       O -3.16873e+00  1.06485e+00  3.65438e-01
       H -2.74519e+00  2.53001e-01  6.45784e-01
       H -2.60573e+00  1.80619e+00  5.74810e-01
       H -3.73660e+00  1.10854e+00 -3.35689e-01
4
# CELL(abcABC): 1000.00000  1000.00000  1000.00000    90.00000    90.00000    90.00000  Step:          60  Bead:       0 positions{angstrom}  cell{angstrom}
       O -3.16788e+00  1.06502e+00  3.65938e-01
       H -2.74508e+00  2.54648e-01  6.37213e-01
       H -2.60645e+00  1.79906e+00  5.68477e-01
       H -3.74947e+00  1.11135e+00 -3.28731e-01
4
# CELL(abcABC): 1000.00000  1000.00000  1000.00000    90.00000    90.00000    90.00000  Step:          61  Bead:       0 positions{angstrom}  cell{angstrom}
       O -3.16699e+00  1.06520e+00  3.66434e-01
       H -2.74435e+00  2.56326e-01  6.29055e-01
       H -2.60592e+00  1.79185e+00  5.61986e-01
       H -3.76477e+00  1.11404e+00 -3.21957e-01
4
# CELL(abcABC): 1000.00000  1000.00000  1000.00000    90.00000    90.00000    90.00000  Step:          62  Bead:       0 positions{angstrom}  cell{angstrom}
       O -3.16598e+00  1.06541e+00  3.66990e-01
       H -2.74442e+00  2.57301e-01  6.21278e-01
       H -2.60587e+00  1.78507e+00  5.56327e-01
       H -3.78082e+00  1.11642e+00 -3.17339e-01
4
# CELL(abcABC): 1000.00000  1000.00000  1000.00000    90.00000    90.00000    90.00000  Step:          63  Bead:       0 positions{angstrom}  cell{angstrom}
       O -3.16494e+00  1.06545e+00  3.67274e-01
       H -2.74394e+00  2.59017e-01  6.14945e-01
       H -2.60477e+00  1.77927e+00  5.52036e-01
       H -3.79896e+00  1.11998e+00 -3.11224e-01
4
# CELL(abcABC): 1000.00000  1000.00000  1000.00000    90.00000    90.00000    90.00000  Step:          64  Bead:       0 positions{angstrom}  cell{angstrom}
       O -3.16401e+00  1.06538e+00  3.67359e-01
       H -2.74182e+00  2.60433e-01  6.10697e-01
       H -2.60146e+00  1.77557e+00  5.49450e-01
       H -3.81905e+00  1.12330e+00 -3.05746e-01
4
# CELL(abcABC): 1000.00000  1000.00000  1000.00000    90.00000    90.00000    90.00000  Step:          65  Bead:       0 positions{angstrom}  cell{angstrom}
       O -3.16322e+00  1.06516e+00  3.67280e-01
       H -2.73996e+00  2.61714e-01  6.06504e-01
       H -2.59544e+00  1.77569e+00  5.48399e-01
       H -3.83952e+00  1.12542e+00 -2.99241e-01
4
# CELL(abcABC): 1000.00000  1000.00000  1000.00000    90.00000    90.00000    90.00000  Step:          66  Bead:       0 positions{angstrom}  cell{angstrom}
       O -3.16257e+00  1.06478e+00  3.66906e-01
       H -2.73765e+00  2.64669e-01  6.04170e-01
       H -2.58755e+00  1.77653e+00  5.49212e-01
       H -3.85999e+00  1.12771e+00 -2.91780e-01
4
# CELL(abcABC): 1000.00000  1000.00000  1000.00000    90.00000    90.00000    90.00000  Step:          67  Bead:       0 positions{angstrom}  cell{angstrom}
       O -3.16197e+00  1.06447e+00  3.66319e-01
       H -2.73444e+00  2.65618e-01  6.02239e-01
       H -2.57798e+00  1.77906e+00  5.51870e-01
       H -3.88229e+00  1.12912e+00 -2.83186e-01
4
# CELL(abcABC): 1000.00000  1000.00000  1000.00000    90.00000    90.00000    90.00000  Step:          68  Bead:       0 positions{angstrom}  cell{angstrom}
       O -3.16148e+00  1.06418e+00  3.65676e-01
       H -2.73002e+00  2.65092e-01  6.01155e-01
       H -2.56769e+00  1.78240e+00  5.53956e-01
       H -3.90483e+00  1.13094e+00 -2.73993e-01
4
# CELL(abcABC): 1000.00000  1000.00000  1000.00000    90.00000    90.00000    90.00000  Step:          69  Bead:       0 positions{angstrom}  cell{angstrom}
       O -3.16095e+00  1.06411e+00  3.64673e-01
       H -2.72559e+00  2.61950e-01  6.02694e-01
       H -2.55853e+00  1.78567e+00  5.57614e-01
       H -3.92688e+00  1.13186e+00 -2.63262e-01
4
# CELL(abcABC): 1000.00000  1000.00000  1000.00000    90.00000    90.00000    90.00000  Step:          70  Bead:       0 positions{angstrom}  cell{angstrom}
       O -3.16054e+00  1.06404e+00  3.63521e-01
       H -2.72076e+00  2.58794e-01  6.04043e-01
       H -2.55036e+00  1.78877e+00  5.61339e-01
       H -3.94637e+00  1.13309e+00 -2.50047e-01
4
# CELL(abcABC): 1000.00000  1000.00000  1000.00000    90.00000    90.00000    90.00000  Step:          71  Bead:       0 positions{angstrom}  cell{angstrom}
       O -3.16000e+00  1.06417e+00  3.62318e-01
       H -2.71701e+00  2.54419e-01  6.04470e-01
       H -2.54447e+00  1.78981e+00  5.64665e-01
       H -3.96461e+00  1.13432e+00 -2.34706e-01
4
# CELL(abcABC): 1000.00000  1000.00000  1000.00000    90.00000    90.00000    90.00000  Step:          72  Bead:       0 positions{angstrom}  cell{angstrom}
       O -3.15937e+00  1.06431e+00  3.60976e-01
       H -2.71366e+00  2.50730e-01  6.05379e-01
       H -2.54061e+00  1.78913e+00  5.68588e-01
       H -3.98168e+00  1.13641e+00 -2.18241e-01
4
# CELL(abcABC): 1000.00000  1000.00000  1000.00000    90.00000    90.00000    90.00000  Step:          73  Bead:       0 positions{angstrom}  cell{angstrom}
       O -3.15857e+00  1.06457e+00  3.59641e-01
       H -2.71154e+00  2.47762e-01  6.06108e-01
       H -2.53919e+00  1.78684e+00  5.72255e-01
       H -3.99799e+00  1.13757e+00 -2.01445e-01
4
# CELL(abcABC): 1000.00000  1000.00000  1000.00000    90.00000    90.00000    90.00000  Step:          74  Bead:       0 positions{angstrom}  cell{angstrom}
       O -3.15765e+00  1.06482e+00  3.58421e-01
       H -2.71040e+00  2.46083e-01  6.05325e-01
       H -2.54020e+00  1.78275e+00  5.74418e-01
       H -4.01267e+00  1.13943e+00 -1.83465e-01
4
# CELL(abcABC): 1000.00000  1000.00000  1000.00000    90.00000    90.00000    90.00000  Step:          75  Bead:       0 positions{angstrom}  cell{angstrom}
       O -3.15645e+00  1.06511e+00  3.57171e-01
       H -2.71115e+00  2.44755e-01  6.03672e-01
       H -2.54400e+00  1.77665e+00  5.77031e-01
       H -4.02723e+00  1.14222e+00 -1.64582e-01
4
# CELL(abcABC): 1000.00000  1000.00000  1000.00000    90.00000    90.00000    90.00000  Step:          76  Bead:       0 positions{angstrom}  cell{angstrom}
       O -3.15524e+00  1.06524e+00  3.55764e-01
       H -2.71243e+00  2.45012e-01  6.02747e-01
       H -2.54958e+00  1.76985e+00  5.79571e-01
       H -4.03956e+00  1.14668e+00 -1.43864e-01
4
# CELL(abcABC): 1000.00000  1000.00000  1000.00000    90.00000    90.00000    90.00000  Step:          77  Bead:       0 positions{angstrom}  cell{angstrom}
       O -3.15391e+00  1.06526e+00  3.54279e-01
       H -2.71507e+00  2.47364e-01  6.01489e-01
       H -2.55659e+00  1.76346e+00  5.82762e-01
       H -4.05101e+00  1.15045e+00 -1.22218e-01
4
# CELL(abcABC): 1000.00000  1000.00000  1000.00000    90.00000    90.00000    90.00000  Step:          78  Bead:       0 positions{angstrom}  cell{angstrom}
       O -3.15256e+00  1.06517e+00  3.52902e-01
       H -2.71992e+00  2.49806e-01  5.99036e-01
       H -2.56292e+00  1.75872e+00  5.85978e-01
       H -4.06133e+00  1.15409e+00 -1.01128e-01
4
# CELL(abcABC): 1000.00000  1000.00000  1000.00000    90.00000    90.00000    90.00000  Step:          79  Bead:       0 positions{angstrom}  cell{angstrom}
       O -3.15137e+00  1.06507e+00  3.51425e-01
       H -2.72610e+00  2.52958e-01  5.97729e-01
       H -2.56732e+00  1.75486e+00  5.89473e-01
       H -4.06964e+00  1.15639e+00 -7.98622e-02
4
# CELL(abcABC): 1000.00000  1000.00000  1000.00000    90.00000    90.00000    90.00000  Step:          80  Bead:       0 positions{angstrom}  cell{angstrom}
       O -3.15044e+00  1.06489e+00  3.49759e-01
       H -2.73220e+00  2.55899e-01  5.96483e-01
       H -2.57003e+00  1.75296e+00  5.94643e-01
       H -4.07559e+00  1.15820e+00 -5.73537e-02
4
# CELL(abcABC): 1000.00000  1000.00000  1000.00000    90.00000    90.00000    90.00000  Step:          81  Bead:       0 positions{angstrom}  cell{angstrom}
       O -3.14978e+00  1.06451e+00  3.48075e-01
       H -2.73612e+00  2.58564e-01  5.94828e-01
       H -2.57177e+00  1.75533e+00  6.00658e-01
       H -4.08040e+00  1.15919e+00 -3.49697e-02
4
# CELL(abcABC): 1000.00000  1000.00000  1000.00000    90.00000    90.00000    90.00000  Step:          82  Bead:       0 positions{angstrom}  cell{angstrom}
       O -3.14932e+00  1.06426e+00  3.46224e-01
       H -2.73892e+00  2.58967e-01  5.94274e-01
       H -2.57181e+00  1.75858e+00  6.07113e-01
       H -4.08477e+00  1.15951e+00 -1.14925e-02
4
# CELL(abcABC): 1000.00000  1000.00000  1000.00000    90.00000    90.00000    90.00000  Step:          83  Bead:       0 positions{angstrom}  cell{angstrom}
       O -3.14909e+00  1.06399e+00  3.44329e-01
       H -2.74111e+00  2.57944e-01  5.94492e-01
       H -2.57091e+00  1.76377e+00  6.13826e-01
       H -4.08721e+00  1.15976e+00  1.16556e-02
4
# CELL(abcABC): 1000.00000  1000.00000  1000.00000    90.00000    90.00000    90.00000  Step:          84  Bead:       0 positions{angstrom}  cell{angstrom}
       O -3.14897e+00  1.06379e+00  3.42459e-01
       H -2.74165e+00  2.54404e-01  5.93969e-01
       H -2.57070e+00  1.76992e+00  6.20312e-01
       H -4.08883e+00  1.16025e+00  3.53779e-02
4
# CELL(abcABC): 1000.00000  1000.00000  1000.00000    90.00000    90.00000    90.00000  Step:          85  Bead:       0 positions{angstrom}  cell{angstrom}