14
# CELL(abcABC): 1000.00000  1000.00000  1000.00000    90.00000    90.00000    90.00000  Step:         107  Bead:       0 positions{angstrom}  cell{angstrom}
       C -6.97127e-01  6.48005e-01 -1.09693e-01
       C  4.86573e-01 -1.22885e-01  6.30943e-01
       C -1.96645e+00 -2.46261e-01 -1.79941e-01
       C -9.07476e-01  1.99301e+00  6.12539e-01
       H -1.19650e+00  1.88510e+00  1.61120e+00
       H -1.60294e+00  2.65583e+00  8.54180e-02
       H  9.36957e-02  2.47390e+00  6.42374e-01
       H -1.68051e+00 -1.04830e+00 -8.29990e-01
       H -2.87445e+00  2.67723e-01 -5.11955e-01
       H -2.05521e+00 -7.59662e-01  7.73126e-01
       H  1.31209e+00  6.30369e-01  8.41485e-01
       H  7.98463e-01 -9.68806e-01  8.67148e-04
       H  1.43552e-01 -5.28254e-01  1.50826e+00
       H -3.51351e-01  7.98444e-01 -1.19038e+00
