14
# CELL(abcABC): 1000.00000  1000.00000  1000.00000    90.00000    90.00000    90.00000  Step:         107  Bead:       0 positions{angstrom}  cell{angstrom}
       C -5.72814e-01  6.78214e-01  8.68197e-02
       C  8.81406e-02 -6.05929e-01  7.43668e-01
       C -1.78742e+00  3.48318e-01 -8.48502e-01
       C -7.69282e-01  1.83818e+00  1.01689e+00
       H -1.51495e+00  1.80576e+00  1.80805e+00
       H -1.07732e+00  2.76797e+00  5.00462e-01
       H  1.65279e-01  2.08267e+00  1.53841e+00
       H -1.54687e+00 -3.93043e-01 -1.60398e+00
       H -2.16505e+00  1.25173e+00 -1.32926e+00
       H -2.61357e+00 -1.24809e-01 -3.37170e-01
       H  1.04915e+00 -4.44122e-01  1.02049e+00
       H  9.72443e-02 -1.41674e+00  6.28976e-02
       H -5.39004e-01 -8.48218e-01  1.64325e+00
       H  2.18498e-01  8.81068e-01 -9.09196e-01
