4
# CELL(abcABC): 1000.00000  1000.00000  1000.00000    90.00000    90.00000    90.00000  Step:           0  Bead:       0 positions{angstrom}  cell{angstrom}
       O -3.15743e+00  1.07473e+00  3.65031e-01
       H -3.91485e+00  5.11363e-01  3.30921e-01
       H -2.44477e+00  6.79714e-01  9.00040e-01
       H -2.90722e+00  1.82006e+00 -3.39571e-01
4
# CELL(abcABC): 1000.00000  1000.00000  1000.00000    90.00000    90.00000    90.00000  Step:           1  Bead:       0 positions{angstrom}  cell{angstrom}
       O -3.15560e+00  1.07500e+00  3.64510e-01
       H -3.92508e+00  5.04162e-01  3.35141e-01
       H -2.44599e+00  6.79687e-01  9.00327e-01
       H -2.92481e+00  1.82300e+00 -3.35812e-01
4
# CELL(abcABC): 1000.00000  1000.00000  1000.00000    90.00000    90.00000    90.00000  Step:           2  Bead:       0 positions{angstrom}  cell{angstrom}
       O -3.15368e+00  1.07513e+00  3.64032e-01
       H -3.93498e+00  4.98335e-01  3.39901e-01
       H -2.44816e+00  6.80935e-01  8.98974e-01
       H -2.94317e+00  1.82546e+00 -3.31626e-01
4
# CELL(abcABC): 1000.00000  1000.00000  1000.00000    90.00000    90.00000    90.00000  Step:           3  Bead:       0 positions{angstrom}  cell{angstrom}
       O -3.15167e+00  1.07512e+00  3.63523e-01
       H -3.94253e+00  4.93446e-01  3.46550e-01
       H -2.45271e+00  6.84506e-01  8.96901e-01
       H -2.96299e+00  1.82692e+00 -3.28125e-01
4
# CELL(abcABC): 1000.00000  1000.00000  1000.00000    90.00000    90.00000    90.00000  Step:           4  Bead:       0 positions{angstrom}  cell{angstrom}
       O -3.14975e+00  1.07496e+00  3.63125e-01
       H -3.94750e+00  4.90140e-01  3.52251e-01
       H -2.45804e+00  6.89770e-01  8.93553e-01
       H -2.98327e+00  1.82763e+00 -3.24163e-01
4
# CELL(abcABC): 1000.00000  1000.00000  1000.00000    90.00000    90.00000    90.00000  Step:           5  Bead:       0 positions{angstrom}  cell{angstrom}
       O -3.14790e+00  1.07446e+00  3.62773e-01
       H -3.94977e+00  4.90014e-01  3.57830e-01
       H -2.46446e+00  6.96880e-01  8.91090e-01
       H -3.00394e+00  1.82855e+00 -3.21692e-01
4
# CELL(abcABC): 1000.00000  1000.00000  1000.00000    90.00000    90.00000    90.00000  Step:           6  Bead:       0 positions{angstrom}  cell{angstrom}
       O -3.14621e+00  1.07384e+00  3.62422e-01
       H -3.94821e+00  4.93391e-01  3.62614e-01
       H -2.47086e+00  7.02598e-01  8.88350e-01
       H -3.02591e+00  1.82930e+00 -3.18168e-01
4
# CELL(abcABC): 1000.00000  1000.00000  1000.00000    90.00000    90.00000    90.00000  Step:           7  Bead:       0 positions{angstrom}  cell{angstrom}
       O -3.14490e+00  1.07296e+00  3.61799e-01
       H -3.94161e+00  4.99775e-01  3.68835e-01
       H -2.47567e+00  7.07585e-01  8.87969e-01
       H -3.04838e+00  1.83190e+00 -3.14119e-01
4
# CELL(abcABC): 1000.00000  1000.00000  1000.00000    90.00000    90.00000    90.00000  Step:           8  Bead:       0 positions{angstrom}  cell{angstrom}
       O -3.14405e+00  1.07198e+00  3.61113e-01
       H -3.93112e+00  5.08546e-01  3.74543e-01
       H -2.47687e+00  7.10858e-01  8.89125e-01
       H -3.07131e+00  1.83540e+00 -3.10084e-01
4
# CELL(abcABC): 1000.00000  1000.00000  1000.00000    90.00000    90.00000    90.00000  Step:           9  Bead:       0 positions{angstrom}  cell{angstrom}
       O -3.14353e+00  1.07104e+00  3.60164e-01
       H -3.91890e+00  5.17833e-01  3.81534e-01
       H -2.47410e+00  7.13315e-01  8.93248e-01
       H -3.09440e+00  1.83863e+00 -3.06137e-01
4
# CELL(abcABC): 1000.00000  1000.00000  1000.00000    90.00000    90.00000    90.00000  Step:          10  Bead:       0 positions{angstrom}  cell{angstrom}
       O -3.14322e+00  1.07003e+00  3.59220e-01
       H -3.90639e+00  5.27214e-01  3.87940e-01
       H -2.46853e+00  7.15690e-01  8.98680e-01
       H -3.11751e+00  1.84289e+00 -3.02994e-01
4
# CELL(abcABC): 1000.00000  1000.00000  1000.00000    90.00000    90.00000    90.00000  Step:          11  Bead:       0 positions{angstrom}  cell{angstrom}
       O -3.14294e+00  1.06909e+00  3.58333e-01
       H -3.89520e+00  5.36051e-01  3.93285e-01
       H -2.46230e+00  7.17391e-01  9.05125e-01
       H -3.13937e+00  1.84719e+00 -3.00694e-01
4
# CELL(abcABC): 1000.00000  1000.00000  1000.00000    90.00000    90.00000    90.00000  Step:          12  Bead:       0 positions{angstrom}  cell{angstrom}
       O -3.14268e+00  1.06834e+00  3.57470e-01
       H -3.88603e+00  5.42114e-01  3.98654e-01
       H -2.45508e+00  7.17903e-01  9.11272e-01
       H -3.15986e+00  1.85253e+00 -2.98525e-01
4
# CELL(abcABC): 1000.00000  1000.00000  1000.00000    90.00000    90.00000    90.00000  Step:          13  Bead:       0 positions{angstrom}  cell{angstrom}
       O -3.14224e+00  1.06778e+00  3.56575e-01
       H -3.88158e+00  5.45077e-01  4.04765e-01
       H -2.44640e+00  7.18754e-01  9.17354e-01
       H -3.17992e+00  1.85761e+00 -2.96512e-01
4
# CELL(abcABC): 1000.00000  1000.00000  1000.00000    90.00000    90.00000    90.00000  Step:          14  Bead:       0 positions{angstrom}  cell{angstrom}
       O -3.14154e+00  1.06739e+00  3.55662e-01
       H -3.88119e+00  5.43574e-01  4.11981e-01
       H -2.43801e+00  7.21159e-01  9.22552e-01
       H -3.19989e+00  1.86297e+00 -2.94417e-01
4
# CELL(abcABC): 1000.00000  1000.00000  1000.00000    90.00000    90.00000    90.00000  Step:          15  Bead:       0 positions{angstrom}  cell{angstrom}
       O -3.14041e+00  1.06703e+00  3.54571e-01
       H -3.88795e+00  5.37556e-01  4.22176e-01
       H -2.43178e+00  7.25436e-01  9.26465e-01
       H -3.21723e+00  1.87031e+00 -2.91218e-01
4
# CELL(abcABC): 1000.00000  1000.00000  1000.00000    90.00000    90.00000    90.00000  Step:          16  Bead:       0 positions{angstrom}  cell{angstrom}
       O -3.13905e+00  1.06668e+00  3.53530e-01
       H -3.89729e+00  5.28292e-01  4.32860e-01
       H -2.42777e+00  7.32395e-01  9.28610e-01
       H -3.23354e+00  1.87824e+00 -2.87517e-01
4
# CELL(abcABC): 1000.00000  1000.00000  1000.00000    90.00000    90.00000    90.00000  Step:          17  Bead:       0 positions{angstrom}  cell{angstrom}
       O -3.13743e+00  1.06630e+00  3.52535e-01
       H -3.90754e+00  5.18051e-01  4.44459e-01
       H -2.42696e+00  7.41723e-01  9.27872e-01
       H -3.24977e+00  1.88519e+00 -2.82594e-01
4
# CELL(abcABC): 1000.00000  1000.00000  1000.00000    90.00000    90.00000    90.00000  Step:          18  Bead:       0 positions{angstrom}  cell{angstrom}
       O -3.13576e+00  1.06573e+00  3.51581e-01
       H -3.91841e+00  5.08634e-01  4.56716e-01
       H -2.42691e+00  7.52607e-01  9.25375e-01
       H -3.26548e+00  1.89269e+00 -2.77206e-01
4
# CELL(abcABC): 1000.00000  1000.00000  1000.00000    90.00000    90.00000    90.00000  Step:          19  Bead:       0 positions{angstrom}  cell{angstrom}
       O -3.13431e+00  1.06507e+00  3.50635e-01
       H -3.92662e+00  5.00362e-01  4.69654e-01
       H -2.42895e+00  7.64179e-01  9.20952e-01
       H -3.27824e+00  1.89996e+00 -2.70711e-01
4
# CELL(abcABC): 1000.00000  1000.00000  1000.00000    90.00000    90.00000    90.00000  Step:          20  Bead:       0 positions{angstrom}  cell{angstrom}
       O -3.13313e+00  1.06428e+00  3.49750e-01
       H -3.93111e+00  4.94748e-01  4.81118e-01
       H -2.43240e+00  7.76695e-01  9.16161e-01
       H -3.28903e+00  1.90557e+00 -2.63332e-01
4
# CELL(abcABC): 1000.00000  1000.00000  1000.00000    90.00000    90.00000    90.00000  Step:          21  Bead:       0 positions{angstrom}  cell{angstrom}
       O -3.13243e+00  1.06333e+00  3.48911e-01
       H -3.93160e+00  4.91380e-01  4.91050e-01
       H -2.43362e+00  7.90141e-01  9.12523e-01
       H -3.29849e+00  1.91058e+00 -2.56305e-01
4
# CELL(abcABC): 1000.00000  1000.00000  1000.00000    90.00000    90.00000    90.00000  Step:          22  Bead:       0 positions{angstrom}  cell{angstrom}
       O -3.13228e+00  1.06216e+00  3.48120e-01
       H -3.92844e+00  4.90074e-01  5.01389e-01
       H -2.43117e+00  8.03847e-01  9.08125e-01
       H -3.30652e+00  1.91672e+00 -2.49686e-01
4
# CELL(abcABC): 1000.00000  1000.00000  1000.00000    90.00000    90.00000    90.00000  Step:          23  Bead:       0 positions{angstrom}  cell{angstrom}
       O -3.13268e+00  1.06087e+00  3.47453e-01
       H -3.92046e+00  4.92165e-01  5.10543e-01
       H -2.42564e+00  8.17792e-01  9.05364e-01
       H -3.31361e+00  1.92114e+00 -2.45493e-01
4
# CELL(abcABC): 1000.00000  1000.00000  1000.00000    90.00000    90.00000    90.00000  Step:          24  Bead:       0 positions{angstrom}  cell{angstrom}
       O -3.13360e+00  1.05942e+00  3.46724e-01
       H -3.90786e+00  4.95664e-01  5.19046e-01
       H -2.41737e+00  8.32449e-01  9.04157e-01
       H -3.31982e+00  1.92604e+00 -2.41222e-01
4
# CELL(abcABC): 1000.00000  1000.00000  1000.00000    90.00000    90.00000    90.00000  Step:          25  Bead:       0 positions{angstrom}  cell{angstrom}
       O -3.13488e+00  1.05805e+00  3.45835e-01
       H -3.89244e+00  4.99752e-01  5.27974e-01
       H -2.40745e+00  8.46120e-01  9.04178e-01
       H -3.32496e+00  1.93007e+00 -2.36060e-01
4
# CELL(abcABC): 1000.00000  1000.00000  1000.00000    90.00000    90.00000    90.00000  Step:          26  Bead:       0 positions{angstrom}  cell{angstrom}
       O -3.13637e+00  1.05682e+00  3.44861e-01
       H -3.87566e+00  5.03685e-01  5.36116e-01
       H -2.39594e+00  8.59262e-01  9.04522e-01
       H -3.32947e+00  1.93244e+00 -2.29082e-01
4
# CELL(abcABC): 1000.00000  1000.00000  1000.00000    90.00000    90.00000    90.00000  Step:          27  Bead:       0 positions{angstrom}  cell{angstrom}
       O -3.13803e+00  1.05572e+00  3.43871e-01
       H -3.85947e+00  5.07788e-01  5.43903e-01
       H -2.38408e+00  8.71453e-01  9.04364e-01
       H -3.33126e+00  1.93364e+00 -2.20998e-01
4
# CELL(abcABC): 1000.00000  1000.00000  1000.00000    90.00000    90.00000    90.00000  Step:          28  Bead:       0 positions{angstrom}  cell{angstrom}
       O -3.13950e+00  1.05484e+00  3.42796e-01
       H -3.84662e+00  5.08193e-01  5.52316e-01
       H -2.37231e+00  8.83772e-01  9.03594e-01
       H -3.33256e+00  1.93490e+00 -2.11569e-01
4
# CELL(abcABC): 1000.00000  1000.00000  1000.00000    90.00000    90.00000    90.00000  Step:          29  Bead:       0 positions{angstrom}  cell{angstrom}
       O -3.14071e+00  1.05418e+00  3.41735e-01
       H -3.83664e+00  5.05767e-01  5.60432e-01
       H -2.36312e+00  8.96136e-01  9.01329e-01
       H -3.33241e+00  1.93540e+00 -2.00582e-01
4
# CELL(abcABC): 1000.00000  1000.00000  1000.00000    90.00000    90.00000    90.00000  Step:          30  Bead:       0 positions{angstrom}  cell{angstrom}
       O -3.14156e+00  1.05370e+00  3.40657e-01
       H -3.83056e+00  5.00633e-01  5.70630e-01
       H -2.35645e+00  9.08569e-01  8.97603e-01
       H -3.33168e+00  1.93582e+00 -1.89951e-01
4
# CELL(abcABC): 1000.00000  1000.00000  1000.00000    90.00000    90.00000    90.00000  Step:          31  Bead:       0 positions{angstrom}  cell{angstrom}
       O -3.14215e+00  1.05335e+00  3.39679e-01
       H -3.82711e+00  4.92017e-01  5.82327e-01
       H -2.35180e+00  9.22210e-01  8.91202e-01
       H -3.33040e+00  1.93624e+00 -1.79724e-01
4
# CELL(abcABC): 1000.00000  1000.00000  1000.00000    90.00000    90.00000    90.00000  Step:          32  Bead:       0 positions{angstrom}  cell{angstrom}
       O -3.14236e+00  1.05332e+00  3.38585e-01
       H -3.82807e+00  4.78470e-01  5.95701e-01
       H -2.34924e+00  9.37121e-01  8.84045e-01
       H -3.32867e+00  1.93545e+00 -1.68566e-01
4
# CELL(abcABC): 1000.00000  1000.00000  1000.00000    90.00000    90.00000    90.00000  Step:          33  Bead:       0 positions{angstrom}  cell{angstrom}
       O -3.14231e+00  1.05354e+00  3.37481e-01
       H -3.83149e+00  4.62463e-01  6.10764e-01
       H -2.34869e+00  9.50919e-01  8.75668e-01
       H -3.32670e+00  1.93415e+00 -1.57727e-01
4
# CELL(abcABC): 1000.00000  1000.00000  1000.00000    90.00000    90.00000    90.00000  Step:          34  Bead:       0 positions{angstrom}  cell{angstrom}
       O -3.14200e+00  1.05382e+00  3.36617e-01
       H -3.83453e+00  4.46098e-01  6.25305e-01
       H -2.35182e+00  9.63934e-01  8.66321e-01
       H -3.32538e+00  1.93297e+00 -1.49207e-01
4
# CELL(abcABC): 1000.00000  1000.00000  1000.00000    90.00000    90.00000    90.00000  Step:          35  Bead:       0 positions{angstrom}  cell{angstrom}
       O -3.14176e+00  1.05401e+00  3.35925e-01
       H -3.83430e+00  4.30944e-01  6.37910e-01
       H -2.35710e+00  9.77412e-01  8.57012e-01
       H -3.32411e+00  1.93167e+00 -1.41529e-01
4
# CELL(abcABC): 1000.00000  1000.00000  1000.00000    90.00000    90.00000    90.00000  Step:          36  Bead:       0 positions{angstrom}  cell{angstrom}
       O -3.14173e+00  1.05398e+00  3.35429e-01
       H -3.83117e+00  4.18179e-01  6.48137e-01
       H -2.36194e+00  9.91558e-01  8.47050e-01
       H -3.32297e+00  1.93081e+00 -1.33907e-01
4
# CELL(abcABC): 1000.00000  1000.00000  1000.00000    90.00000    90.00000    90.00000  Step:          37  Bead:       0 positions{angstrom}  cell{angstrom}
       O -3.14204e+00  1.05382e+00  3.34981e-01
       H -3.82410e+00  4.09312e-01  6.57814e-01
       H -2.36466e+00  1.00431e+00  8.37629e-01
       H -3.32242e+00  1.92942e+00 -1.27052e-01
4
# CELL(abcABC): 1000.00000  1000.00000  1000.00000    90.00000    90.00000    90.00000  Step:          38  Bead:       0 positions{angstrom}  cell{angstrom}
       O -3.14255e+00  1.05346e+00  3.34837e-01
       H -3.81453e+00  4.03617e-01  6.63768e-01
       H -2.36456e+00  1.01501e+00  8.29597e-01
       H -3.32400e+00  1.93016e+00 -1.22689e-01
4
# CELL(abcABC): 1000.00000  1000.00000  1000.00000    90.00000    90.00000    90.00000  Step:          39  Bead:       0 positions{angstrom}  cell{angstrom}
       O -3.14360e+00  1.05303e+00  3.34705e-01
       H -3.80095e+00  4.00652e-01  6.67689e-01
       H -2.36061e+00  1.02350e+00  8.24505e-01
       H -3.32482e+00  1.93146e+00 -1.19432e-01
4
# CELL(abcABC): 1000.00000  1000.00000  1000.00000    90.00000    90.00000    90.00000  Step:          40  Bead:       0 positions{angstrom}  cell{angstrom}
       O -3.14502e+00  1.05240e+00  3.34495e-01
       H -3.78468e+00  4.00697e-01  6.70237e-01
       H -2.35304e+00  1.03101e+00  8.22972e-01
       H -3.32606e+00  1.93392e+00 -1.17116e-01
4
# CELL(abcABC): 1000.00000  1000.00000  1000.00000    90.00000    90.00000    90.00000  Step:          41  Bead:       0 positions{angstrom}  cell{angstrom}
       O -3.14664e+00  1.05164e+00  3.34341e-01
       H -3.76705e+00  4.03503e-01  6.70438e-01
       H -2.34240e+00  1.03779e+00  8.23123e-01
       H -3.32859e+00  1.93637e+00 -1.15010e-01
4
# CELL(abcABC): 1000.00000  1000.00000  1000.00000    90.00000    90.00000    90.00000  Step:          42  Bead:       0 positions{angstrom}  cell{angstrom}
       O -3.14840e+00  1.05100e+00  3.34351e-01
       H -3.74765e+00  4.05221e-01  6.69026e-01
       H -2.33042e+00  1.04349e+00  8.24188e-01
       H -3.33210e+00  1.93904e+00 -1.14828e-01
4
# CELL(abcABC): 1000.00000  1000.00000  1000.00000    90.00000    90.00000    90.00000  Step:          43  Bead:       0 positions{angstrom}  cell{angstrom}
       O -3.14997e+00  1.05041e+00  3.34493e-01
       H -3.72971e+00  4.06996e-01  6.66731e-01
       H -2.31871e+00  1.04941e+00  8.25145e-01
       H -3.33684e+00  1.94079e+00 -1.15742e-01
4
# CELL(abcABC): 1000.00000  1000.00000  1000.00000    90.00000    90.00000    90.00000  Step:          44  Bead:       0 positions{angstrom}  cell{angstrom}
       O -3.15116e+00  1.05007e+00  3.34747e-01
       H -3.71423e+00  4.05714e-01  6.64102e-01
       H -2.30870e+00  1.05380e+00  8.24520e-01
       H -3.34350e+00  1.94305e+00 -1.16518e-01
4
# CELL(abcABC): 1000.00000  1000.00000  1000.00000    90.00000    90.00000    90.00000  Step:          45  Bead:       0 positions{angstrom}  cell{angstrom}
       O -3.15175e+00  1.05008e+00  3.35162e-01
       H -3.70310e+00  4.00869e-01  6.61744e-01
       H -2.30077e+00  1.05642e+00  8.21421e-01
       H -3.35313e+00  1.94514e+00 -1.17659e-01
4
# CELL(abcABC): 1000.00000  1000.00000  1000.00000    90.00000    90.00000    90.00000  Step:          46  Bead:       0 positions{angstrom}  cell{angstrom}
       O -3.15183e+00  1.05049e+00  3.35708e-01
       H -3.69628e+00  3.92315e-01  6.60184e-01
       H -2.29631e+00  1.05704e+00  8.15867e-01
       H -3.36321e+00  1.94661e+00 -1.19199e-01
4
# CELL(abcABC): 1000.00000  1000.00000  1000.00000    90.00000    90.00000    90.00000  Step:          47  Bead:       0 positions{angstrom}  cell{angstrom}
       O -3.15133e+00  1.05115e+00  3.36477e-01
       H -3.69335e+00  3.79340e-01  6.59993e-01
       H -2.29515e+00  1.05676e+00  8.07415e-01
       H -3.37515e+00  1.94932e+00 -1.22772e-01
4
# CELL(abcABC): 1000.00000  1000.00000  1000.00000    90.00000    90.00000    90.00000  Step:          48  Bead:       0 positions{angstrom}  cell{angstrom}
       O -3.15036e+00  1.05221e+00  3.37343e-01
       H -3.69287e+00  3.62174e-01  6.60716e-01
       H -2.29707e+00  1.05600e+00  7.96412e-01
       H -3.38906e+00  1.95036e+00 -1.26233e-01
4
# CELL(abcABC): 1000.00000  1000.00000  1000.00000    90.00000    90.00000    90.00000  Step:          49  Bead:       0 positions{angstrom}  cell{angstrom}
       O -3.14914e+00  1.05349e+00  3.38208e-01
       H -3.69385e+00  3.42967e-01  6.61868e-01
       H -2.29997e+00  1.05395e+00  7.84189e-01
       H -3.40464e+00  1.95134e+00 -1.28889e-01
4
# CELL(abcABC): 1000.00000  1000.00000  1000.00000    90.00000    90.00000    90.00000  Step:          50  Bead:       0 positions{angstrom}  cell{angstrom}
       O -3.14761e+00  1.05494e+00  3.39286e-01
       H -3.69520e+00  3.24099e-01  6.61774e-01
       H -2.30567e+00  1.05026e+00  7.71296e-01
       H -3.42181e+00  1.95091e+00 -1.33017e-01
4
# CELL(abcABC): 1000.00000  1000.00000  1000.00000    90.00000    90.00000    90.00000  Step:          51  Bead:       0 positions{angstrom}  cell{angstrom}
       O -3.14615e+00  1.05638e+00  3.40475e-01
       H -3.69571e+00  3.06676e-01  6.59596e-01
       H -2.31121e+00  1.04609e+00  7.58291e-01
       H -3.43889e+00  1.94969e+00 -1.36704e-01
4
# CELL(abcABC): 1000.00000  1000.00000  1000.00000    90.00000    90.00000    90.00000  Step:          52  Bead:       0 positions{angstrom}  cell{angstrom}
       O -3.14491e+00  1.05783e+00  3.41841e-01
       H -3.69447e+00  2.92198e-01  6.55302e-01
       H -2.31488e+00  1.04067e+00  7.44996e-01
       H -3.45615e+00  1.94657e+00 -1.40798e-01
4
# CELL(abcABC): 1000.00000  1000.00000  1000.00000    90.00000    90.00000    90.00000  Step:          53  Bead:       0 positions{angstrom}  cell{angstrom}
       O -3.14408e+00  1.05911e+00  3.43202e-01
       H -3.68991e+00  2.82313e-01  6.47719e-01
       H -2.31514e+00  1.03608e+00  7.33902e-01
       H -3.47368e+00  1.94064e+00 -1.43730e-01
4
# CELL(abcABC): 1000.00000  1000.00000  1000.00000    90.00000    90.00000    90.00000  Step:          54  Bead:       0 positions{angstrom}  cell{angstrom}
       O -3.14370e+00  1.06032e+00  3.44291e-01
       H -3.68250e+00  2.75964e-01  6.38874e-01
       H -2.31116e+00  1.03174e+00  7.25586e-01
       H -3.49116e+00  1.93212e+00 -1.43857e-01
4
# CELL(abcABC): 1000.00000  1000.00000  1000.00000    90.00000    90.00000    90.00000  Step:          55  Bead:       0 positions{angstrom}  cell{angstrom}
       O -3.14384e+00  1.06138e+00  3.45316e-01
       H -3.67282e+00  2.74159e-01  6.28657e-01
       H -2.30232e+00  1.02716e+00  7.19955e-01
       H -3.50740e+00  1.92172e+00 -1.44282e-01
4
# CELL(abcABC): 1000.00000  1000.00000  1000.00000    90.00000    90.00000    90.00000  Step:          56  Bead:       0 positions{angstrom}  cell{angstrom}
       O -3.14446e+00  1.06224e+00  3.46315e-01
       H -3.65852e+00  2.76540e-01  6.17242e-01
       H -2.28983e+00  1.02213e+00  7.14800e-01
       H -3.52430e+00  1.91069e+00 -1.43558e-01
4
# CELL(abcABC): 1000.00000  1000.00000  1000.00000    90.00000    90.00000    90.00000  Step:          57  Bead:       0 positions{angstrom}  cell{angstrom}
       O -3.14536e+00  1.06295e+00  3.47253e-01
       H -3.64093e+00  2.82336e-01  6.05071e-01
       H -2.27603e+00  1.01662e+00  7.11511e-01
       H -3.54152e+00  1.89924e+00 -1.42993e-01
4
# CELL(abcABC): 1000.00000  1000.00000  1000.00000    90.00000    90.00000    90.00000  Step:          58  Bead:       0 positions{angstrom}  cell{angstrom}
       O -3.14643e+00  1.06366e+00  3.48196e-01
       H -3.62168e+00  2.88503e-01  5.92134e-01
       H -2.26119e+00  1.01131e+00  7.09003e-01
       H -3.55859e+00  1.88712e+00 -1.42523e-01
4
# CELL(abcABC): 1000.00000  1000.00000  1000.00000    90.00000    90.00000    90.00000  Step:          59  Bead:       0 positions{angstrom}  cell{angstrom}
       O -3.14748e+00  1.06438e+00  3.49038e-01
       H -3.60227e+00  2.93791e-01  5.79413e-01
       H -2.24703e+00  1.00695e+00  7.07531e-01
       H -3.57550e+00  1.87463e+00 -1.41698e-01
4
# CELL(abcABC): 1000.00000  1000.00000  1000.00000    90.00000    90.00000    90.00000  Step:          60  Bead:       0 positions{angstrom}  cell{angstrom}
       O -3.14831e+00  1.06534e+00  3.49948e-01
       H -3.58606e+00  2.95433e-01  5.67590e-01
       H -2.23459e+00  1.00268e+00  7.03327e-01
       H -3.59095e+00  1.86207e+00 -1.40113e-01
4
# CELL(abcABC): 1000.00000  1000.00000  1000.00000    90.00000    90.00000    90.00000  Step:          61  Bead:       0 positions{angstrom}  cell{angstrom}
       O -3.14886e+00  1.06660e+00  3.50916e-01
       H -3.57212e+00  2.91515e-01  5.56797e-01
       H -2.22447e+00  9.99088e-01  6.96240e-01
       H -3.60631e+00  1.84955e+00 -1.37595e-01
4
# CELL(abcABC): 1000.00000  1000.00000  1000.00000    90.00000    90.00000    90.00000  Step:          62  Bead:       0 positions{angstrom}  cell{angstrom}
       O -3.14888e+00  1.06824e+00  3.52062e-01
       H -3.56255e+00  2.80920e-01  5.46993e-01
       H -2.21984e+00  9.96065e-01  6.86784e-01
       H -3.62018e+00  1.83717e+00 -1.36525e-01
4
# CELL(abcABC): 1000.00000  1000.00000  1000.00000    90.00000    90.00000    90.00000  Step:          63  Bead:       0 positions{angstrom}  cell{angstrom}
       O -3.14840e+00  1.07000e+00  3.53122e-01
       H -3.55589e+00  2.66088e-01  5.38870e-01
       H -2.21995e+00  9.93460e-01  6.75280e-01
       H -3.63427e+00  1.82670e+00 -1.33730e-01
4
# CELL(abcABC): 1000.00000  1000.00000  1000.00000    90.00000    90.00000    90.00000  Step:          64  Bead:       0 positions{angstrom}  cell{angstrom}
       O -3.14760e+00  1.07186e+00  3.54227e-01
       H -3.55044e+00  2.47946e-01  5.32538e-01
       H -2.22369e+00  9.91882e-01  6.62128e-01
       H -3.64879e+00  1.81694e+00 -1.31774e-01
4
# CELL(abcABC): 1000.00000  1000.00000  1000.00000    90.00000    90.00000    90.00000  Step:          65  Bead:       0 positions{angstrom}  cell{angstrom}
       O -3.14655e+00  1.07360e+00  3.55446e-01
       H -3.54721e+00  2.28999e-01  5.25452e-01
       H -2.22977e+00  9.92895e-01  6.47494e-01
       H -3.66253e+00  1.80714e+00 -1.29407e-01
4
# CELL(abcABC): 1000.00000  1000.00000  1000.00000    90.00000    90.00000    90.00000  Step:          66  Bead:       0 positions{angstrom}  cell{angstrom}
       O -3.14543e+00  1.07505e+00  3.56660e-01
       H -3.54455e+00  2.13453e-01  5.18973e-01
       H -2.23733e+00  9.93821e-01  6.32339e-01
       H -3.67544e+00  1.79885e+00 -1.27041e-01
4
# CELL(abcABC): 1000.00000  1000.00000  1000.00000    90.00000    90.00000    90.00000  Step:          67  Bead:       0 positions{angstrom}  cell{angstrom}
       O -3.14430e+00  1.07625e+00  3.57935e-01
       H -3.54139e+00  1.99646e-01  5.11356e-01
       H -2.24431e+00  9.96225e-01  6.17421e-01
       H -3.68962e+00  1.79115e+00 -1.24743e-01
4
# CELL(abcABC): 1000.00000  1000.00000  1000.00000    90.00000    90.00000    90.00000  Step:          68  Bead:       0 positions{angstrom}  cell{angstrom}
       O -3.14340e+00  1.07701e+00  3.59392e-01
       H -3.53678e+00  1.89459e-01  5.02961e-01
       H -2.24909e+00  1.00007e+00  6.01156e-01
       H -3.70371e+00  1.78535e+00 -1.23215e-01
4
# CELL(abcABC): 1000.00000  1000.00000  1000.00000    90.00000    90.00000    90.00000  Step:          69  Bead:       0 positions{angstrom}  cell{angstrom}
       O -3.14277e+00  1.07747e+00  3.60674e-01
       H -3.53137e+00  1.82288e-01  4.95693e-01
       H -2.25110e+00  1.00532e+00  5.86446e-01
       H -3.71712e+00  1.78011e+00 -1.21592e-01
4
# CELL(abcABC): 1000.00000  1000.00000  1000.00000    90.00000    90.00000    90.00000  Step:          70  Bead:       0 positions{angstrom}  cell{angstrom}
       O -3.14271e+00  1.07734e+00  3.61939e-01
       H -3.52422e+00  1.80502e-01  4.87040e-01
       H -2.24833e+00  1.01265e+00  5.72361e-01
       H -3.72795e+00  1.77653e+00 -1.18931e-01
4
# CELL(abcABC): 1000.00000  1000.00000  1000.00000    90.00000    90.00000    90.00000  Step:          71  Bead:       0 positions{angstrom}  cell{angstrom}
       O -3.14304e+00  1.07688e+00  3.63233e-01
       H -3.51647e+00  1.82001e-01  4.76687e-01
       H -2.24119e+00  1.02077e+00  5.58760e-01
       H -3.73757e+00  1.77420e+00 -1.15516e-01
4
# CELL(abcABC): 1000.00000  1000.00000  1000.00000    90.00000    90.00000    90.00000  Step:          72  Bead:       0 positions{angstrom}  cell{angstrom}
       O -3.14381e+00  1.07596e+00  3.64428e-01
       H -3.50728e+00  1.87324e-01  4.66503e-01
       H -2.22967e+00  1.03037e+00  5.46690e-01
       H -3.74616e+00  1.77385e+00 -1.12229e-01
4
# CELL(abcABC): 1000.00000  1000.00000  1000.00000    90.00000    90.00000    90.00000  Step:          73  Bead:       0 positions{angstrom}  cell{angstrom}
       O -3.14481e+00  1.07481e+00  3.65636e-01
       H -3.49758e+00  1.94689e-01  4.56314e-01
       H -2.21548e+00  1.04165e+00  5.35167e-01
       H -3.75417e+00  1.77352e+00 -1.09699e-01
4
# CELL(abcABC): 1000.00000  1000.00000  1000.00000    90.00000    90.00000    90.00000  Step:          74  Bead:       0 positions{angstrom}  cell{angstrom}
       O -3.14597e+00  1.07345e+00  3.66943e-01
       H -3.48747e+00  2.02594e-01  4.45233e-01
       H -2.20055e+00  1.05420e+00  5.22713e-01
       H -3.76081e+00  1.77462e+00 -1.06902e-01
4
# CELL(abcABC): 1000.00000  1000.00000  1000.00000    90.00000    90.00000    90.00000  Step:          75  Bead:       0 positions{angstrom}  cell{angstrom}
       O -3.14694e+00  1.07213e+00  3.68183e-01
       H -3.47837e+00  2.07977e-01  4.34256e-01
       H -2.18741e+00  1.06721e+00  5.11021e-01
       H -3.76765e+00  1.77716e+00 -1.03926e-01
4
# CELL(abcABC): 1000.00000  1000.00000  1000.00000    90.00000    90.00000    90.00000  Step:          76  Bead:       0 positions{angstrom}  cell{angstrom}
       O -3.14782e+00  1.07083e+00  3.69221e-01
       H -3.46944e+00  2.10365e-01  4.25205e-01
       H -2.17724e+00  1.08110e+00  4.99307e-01
       H -3.77265e+00  1.78165e+00 -9.96272e-02
4
# CELL(abcABC): 1000.00000  1000.00000  1000.00000    90.00000    90.00000    90.00000  Step:          77  Bead:       0 positions{angstrom}  cell{angstrom}
       O -3.14837e+00  1.06973e+00  3.70127e-01
       H -3.46192e+00  2.09153e-01  4.17120e-01
       H -2.17155e+00  1.09584e+00  4.88067e-01
       H -3.77719e+00  1.78547e+00 -9.46863e-02
4
# CELL(abcABC): 1000.00000  1000.00000  1000.00000    90.00000    90.00000    90.00000  Step:          78  Bead:       0 positions{angstrom}  cell{angstrom}
       O -3.14856e+00  1.06896e+00  3.71090e-01
       H -3.45698e+00  2.02196e-01  4.09092e-01
       H -2.16962e+00  1.11146e+00  4.76494e-01
       H -3.78109e+00  1.78899e+00 -9.03739e-02
4
# CELL(abcABC): 1000.00000  1000.00000  1000.00000    90.00000    90.00000    90.00000  Step:          79  Bead:       0 positions{angstrom}  cell{angstrom}
       O -3.14851e+00  1.06861e+00  3.71907e-01
       H -3.45378e+00  1.91267e-01  4.03277e-01
       H -2.17107e+00  1.12616e+00  4.64729e-01
       H -3.78351e+00  1.79083e+00 -8.57581e-02
4
# CELL(abcABC): 1000.00000  1000.00000  1000.00000    90.00000    90.00000    90.00000  Step:          80  Bead:       0 positions{angstrom}  cell{angstrom}
       O -3.14833e+00  1.06853e+00  3.72495e-01
       H -3.45069e+00  1.77507e-01  3.98358e-01
       H -2.17640e+00  1.14024e+00  4.54147e-01
       H -3.78416e+00  1.79175e+00 -7.96008e-02
4
# CELL(abcABC): 1000.00000  1000.00000  1000.00000    90.00000    90.00000    90.00000  Step:          81  Bead:       0 positions{angstrom}  cell{angstrom}
       O -3.14806e+00  1.06848e+00  3.73021e-01
       H -3.44534e+00  1.63304e-01  3.93641e-01
       H -2.18587e+00  1.15567e+00  4.44036e-01
       H -3.78431e+00  1.79135e+00 -7.31172e-02
4
# CELL(abcABC): 1000.00000  1000.00000  1000.00000    90.00000    90.00000    90.00000  Step:          82  Bead:       0 positions{angstrom}  cell{angstrom}
       O -3.14774e+00  1.06863e+00  3.73321e-01
       H -3.43855e+00  1.48873e-01  3.90457e-01
       H -2.19734e+00  1.16934e+00  4.34298e-01
       H -3.78470e+00  1.78981e+00 -6.49544e-02
4
# CELL(abcABC): 1000.00000  1000.00000  1000.00000    90.00000    90.00000    90.00000  Step:          83  Bead:       0 positions{angstrom}  cell{angstrom}
       O -3.14752e+00  1.06866e+00  3.73489e-01
       H -3.43050e+00  1.36785e-01  3.88426e-01
       H -2.20972e+00  1.18286e+00  4.25133e-01
       H -3.78390e+00  1.78778e+00 -5.64273e-02
4
# CELL(abcABC): 1000.00000  1000.00000  1000.00000    90.00000    90.00000    90.00000  Step:          84  Bead:       0 positions{angstrom}  cell{angstrom}
       O -3.14745e+00  1.06858e+00  3.73558e-01
       H -3.41984e+00  1.27034e-01  3.86054e-01
       H -2.22240e+00  1.19615e+00  4.16519e-01
       H -3.78304e+00  1.78565e+00 -4.65412e-02
4
# CELL(abcABC): 1000.00000  1000.00000  1000.00000    90.00000    90.00000    90.00000  Step:          85  Bead:       0 positions{angstrom}  cell{angstrom}