11115
# CELL(abcABC):   47.66706    47.66706    47.66706    90.00000    90.00000    90.00000  Step:       10000  Bead:       0 positions{angstrom}  cell{angstrom}
       C  7.38180e+00  3.37327e+00  6.83042e+00
       H  8.14913e+00  3.13680e+00  7.66335e+00
       H  6.63280e+00  4.14442e+00  7.26693e+00
       H  7.88749e+00  3.74503e+00  5.98975e+00
       C  6.75596e+00  2.08563e+00  6.46210e+00
       O  5.55343e+00  1.88895e+00  6.52965e+00
       N  7.54372e+00  1.15693e+00  6.00402e+00
       H  8.54048e+00  1.37964e+00  5.85462e+00
       C  7.05166e+00 -1.46147e-01  5.48379e+00
       H  6.17239e+00  1.47609e-01  4.92358e+00
       C  8.05213e+00 -6.90973e-01  4.50709e+00
       H  8.95754e+00 -9.57257e-01  5.04387e+00
       H  8.18600e+00  5.33644e-04  3.77154e+00
       C  7.74259e+00 -2.00474e+00  3.80341e+00
       O  8.66912e+00 -2.85205e+00  3.70732e+00
       O  6.53781e+00 -2.21325e+00  3.37670e+00
       H  6.32074e+00 -3.19814e+00  2.86612e+00
       C  6.71654e+00 -1.24719e+00  6.53572e+00
       O  7.47092e+00 -2.17747e+00  6.76407e+00
       N  5.60244e+00 -1.02569e+00  7.24938e+00
       H  5.16215e+00 -1.70273e+00  7.79154e+00
       H  4.99748e+00 -2.98828e-01  6.92504e+00
       O -2.05440e+01 -1.85763e+01 -3.01112e+00
       H -2.03148e+01 -1.83828e+01 -2.09426e+00
       H -2.00469e+01 -1.79313e+01 -3.47158e+00
       O -3.65591e+01 -1.33921e+01 -3.49580e+01
       H -3.67678e+01 -1.40349e+01 -3.42698e+01
       H -3.58764e+01 -1.28407e+01 -3.44841e+01
       O -1.59395e+01 -1.24433e+01  7.29297e-01
       H -1.67190e+01 -1.21548e+01  2.45501e-01
       H -1.53223e+01 -1.17008e+01  7.44829e-01
       O -1.69242e+01 -3.12664e+01 -8.88622e+00
       H -1.76616e+01 -3.06953e+01 -8.49856e+00
       H -1.64165e+01 -3.13428e+01 -8.07973e+00
       O -2.33485e+01 -1.68974e+01 -5.65926e+00
       H -2.35175e+01 -1.73794e+01 -4.78057e+00
       H -2.41430e+01 -1.62563e+01 -5.80261e+00
       O -2.25088e+01 -2.46832e+01 -1.65011e+01
       H -2.27314e+01 -2.48894e+01 -1.55671e+01
       H -2.18302e+01 -2.39625e+01 -1.63654e+01
       O -2.59721e+01 -2.55473e+01 -1.53451e+01
       H -2.56100e+01 -2.63375e+01 -1.57909e+01
       H -2.54113e+01 -2.54524e+01 -1.45602e+01
       O -2.42332e+01 -1.46242e+01 -1.63892e+01
       H -2.43675e+01 -1.42649e+01 -1.55116e+01
       H -2.40148e+01 -1.38745e+01 -1.69501e+01
       O -1.35154e+01 -2.80907e+01 -2.39663e+01
       H -1.30265e+01 -2.72584e+01 -2.42148e+01
       H -1.37748e+01 -2.78662e+01 -2.30158e+01
       O -3.14749e+00 -2.99168e+01 -5.64892e+00
       H -4.04380e+00 -2.96100e+01 -5.93921e+00
       H -2.58484e+00 -2.91460e+01 -5.82092e+00
       O -1.93486e+01 -8.76892e+00 -2.50745e+01
       H -1.96263e+01 -9.16697e+00 -2.58917e+01
       H -1.83992e+01 -8.94812e+00 -2.50524e+01
       O -5.84622e+00  9.51707e+00 -6.11905e+00
       H -6.57654e+00  9.46970e+00 -5.44409e+00
       H -5.09184e+00  9.28035e+00 -5.45562e+00
       O -1.43263e+01 -2.22678e+01 -2.15488e+01
       H -1.49245e+01 -2.19649e+01 -2.08253e+01
       H -1.35858e+01 -2.16918e+01 -2.14212e+01
       O -2.30621e+01 -4.26795e+00 -1.28894e+01
       H -2.33812e+01 -5.16052e+00 -1.31126e+01
       H -2.24191e+01 -4.45340e+00 -1.21676e+01
       O -2.73535e+01 -3.06858e+01 -3.53814e+01
       H -2.67810e+01 -3.15106e+01 -3.52167e+01
       H -2.67964e+01 -3.02516e+01 -3.61039e+01
       O -6.46352e+00 -2.25528e+01 -1.52100e+01
       H -7.29756e+00 -2.25864e+01 -1.57070e+01
       H -5.73053e+00 -2.24266e+01 -1.59024e+01
       O -2.72133e+01 -2.78522e+01  5.82440e+00
       H -2.66605e+01 -2.85937e+01  6.13364e+00
       H -2.65519e+01 -2.73461e+01  5.39536e+00
       O -1.37922e+01 -1.04480e+01 -1.89021e+01
       H -1.34804e+01 -9.80783e+00 -1.94994e+01
       H -1.44455e+01 -9.93288e+00 -1.82890e+01
       O -2.08661e+01 -1.35434e+01  3.95421e-01
       H -2.14494e+01 -1.28895e+01  2.20023e-02
       H -2.04438e+01 -1.38918e+01 -4.17730e-01
       O -1.87050e+01  3.86481e+00 -3.43480e+01
       H -1.81127e+01  3.15923e+00 -3.46599e+01
       H -1.80214e+01  4.24952e+00 -3.37229e+01
       O -8.27283e+00 -3.32951e+01 -7.92770e+00
       H -8.00701e+00 -3.33844e+01 -8.82989e+00
       H -8.04884e+00 -3.41701e+01 -7.62943e+00
       O -3.61369e+01 -4.84549e+00 -2.46891e+01
       H -3.53111e+01 -4.36205e+00 -2.46357e+01
       H -3.65400e+01 -4.54833e+00 -2.55365e+01
       O -4.62669e+00 -6.76269e+00 -2.04358e+01
       H -5.21557e+00 -7.05321e+00 -1.97167e+01
       H -5.23578e+00 -6.74960e+00 -2.11968e+01
       O -2.76735e+01 -1.56273e+01 -1.23688e+01
       H -2.76706e+01 -1.65403e+01 -1.25640e+01
       H -2.66879e+01 -1.54941e+01 -1.21175e+01
       O -1.18782e+01 -3.62172e+01 -3.27710e+01
       H -1.13070e+01 -3.63356e+01 -3.19807e+01
       H -1.24520e+01 -3.54618e+01 -3.25458e+01
       O -1.81123e+01 -1.30155e+01 -1.88077e+01
       H -1.78816e+01 -1.24355e+01 -1.80963e+01
       H -1.71735e+01 -1.29473e+01 -1.92375e+01
       O -5.44247e+00  1.75061e+01 -7.89318e+00
       H -6.23619e+00  1.77409e+01 -7.38479e+00
       H -5.71100e+00  1.74224e+01 -8.83271e+00
       O -1.75708e+01 -4.64615e+00  8.35127e-01
       H -1.73064e+01 -4.51916e+00 -4.65759e-02
       H -1.82250e+01 -3.95338e+00  1.04544e+00
       O -1.90949e+01 -1.51650e+01 -9.93680e+00
       H -1.96944e+01 -1.57610e+01 -1.04715e+01
       H -1.82323e+01 -1.55672e+01 -1.00644e+01
       O -1.06664e+01 -1.85533e+01 -8.96747e+00
       H -9.95052e+00 -1.85156e+01 -9.64872e+00
       H -1.01826e+01 -1.88269e+01 -8.16276e+00
       O  8.11015e+00  7.08811e+00 -3.84307e+01
       H  8.07052e+00  8.04518e+00 -3.85496e+01
       H  8.55384e+00  6.74586e+00 -3.92820e+01
       O -9.82135e-01 -2.63284e+01 -1.72229e+01
       H -1.29249e+00 -2.56987e+01 -1.65287e+01
       H -1.84742e+00 -2.67315e+01 -1.74678e+01
       O  4.49282e-01 -2.39253e+00 -4.61750e+00
       H  5.69238e-01 -1.51737e+00 -5.02257e+00
       H  1.41638e-01 -2.12602e+00 -3.75953e+00
       O -3.42668e+01 -1.37596e+01 -5.75263e+00
       H -3.50639e+01 -1.37160e+01 -6.29266e+00
       H -3.38095e+01 -1.42597e+01 -6.43850e+00
       O -1.17358e+01 -2.07673e+01 -1.40910e+01
       H -1.24261e+01 -2.07955e+01 -1.48051e+01
       H -1.09432e+01 -2.09630e+01 -1.46322e+01
       O -1.75615e+01 -1.71586e+01 -2.69550e+01
       H -1.84700e+01 -1.70579e+01 -2.65821e+01
       H -1.71040e+01 -1.67878e+01 -2.61680e+01
       O -8.76925e+00 -1.79861e+01  6.49194e+00
       H -8.18307e+00 -1.72523e+01  6.75998e+00
       H -9.11309e+00 -1.82118e+01  7.36679e+00
       O -1.94889e+01 -3.90827e+01 -1.14099e+01
       H -1.86060e+01 -3.89471e+01 -1.11200e+01
       H -1.95914e+01 -3.99936e+01 -1.11733e+01
       O -6.80671e+00 -8.95787e+00  5.34858e+00
       H -7.75423e+00 -9.04251e+00  5.42426e+00
       H -6.43449e+00 -9.88443e+00  5.26934e+00
       O  9.15186e+00 -6.58149e+00 -3.56120e+01
       H  9.93178e+00 -6.99503e+00 -3.51443e+01
       H  9.34589e+00 -5.66913e+00 -3.54220e+01
       O -4.91865e+00 -2.99390e+01 -2.12011e+01
       H -5.40411e+00 -3.03520e+01 -2.19233e+01
       H -4.07253e+00 -2.97536e+01 -2.16473e+01
       O -3.08804e+01 -1.66443e+01 -6.96841e+00
       H -3.07867e+01 -1.62193e+01 -6.13753e+00
       H -2.99886e+01 -1.69821e+01 -7.07358e+00
       O -3.76853e+00 -1.25277e+01 -1.93226e+01
       H -3.12314e+00 -1.19604e+01 -1.88116e+01
       H -4.48570e+00 -1.18654e+01 -1.94205e+01
       O -2.26415e+01 -5.56214e+01 -2.69280e+01
       H -2.35164e+01 -5.57879e+01 -2.71884e+01
       H -2.24759e+01 -5.66077e+01 -2.67953e+01
       O -1.53696e+01 -8.35575e+00 -4.04610e+01
       H -1.52394e+01 -7.86037e+00 -3.95985e+01
       H -1.56667e+01 -7.63813e+00 -4.10012e+01
       O -9.79811e+00 -2.51211e+00 -3.40821e+01
       H -1.04088e+01 -3.19209e+00 -3.36612e+01
       H -1.03031e+01 -1.73410e+00 -3.38665e+01
       O -3.87047e+01 -2.37615e+01 -1.24199e+01
       H -3.79077e+01 -2.36308e+01 -1.19087e+01
       H -3.94140e+01 -2.36016e+01 -1.18113e+01
       O -2.04007e+01 -8.07943e+00 -6.73796e+00
       H -2.07003e+01 -7.17803e+00 -6.82695e+00
       H -1.96539e+01 -7.87058e+00 -6.20883e+00
       O -1.79860e+01 -2.02439e+01 -1.79972e+01
       H -1.83041e+01 -1.93805e+01 -1.81417e+01
       H -1.81542e+01 -2.03139e+01 -1.70398e+01
       O  2.05422e+00 -7.21547e+00  4.28794e+00
       H  1.37060e+00 -7.63610e+00  4.73304e+00
       H  2.40243e+00 -6.59979e+00  4.92552e+00
       O -4.01718e-01  5.02180e+00  8.71340e+00
       H -3.52616e-01  5.01488e+00  9.68456e+00
       H -1.59217e-01  4.10517e+00  8.58292e+00
       O -5.05288e+00  1.22159e+00 -1.79633e+00
       H -5.70031e+00  1.89883e+00 -1.46576e+00
       H -4.43917e+00  1.71105e+00 -2.42763e+00
       O -1.53793e+01 -8.73628e+00 -1.74659e+01
       H -1.60240e+01 -8.72481e+00 -1.66917e+01
       H -1.49846e+01 -7.83265e+00 -1.74020e+01
       O -1.46302e+01  7.05375e+00 -1.65724e+01
       H -1.45367e+01  6.55321e+00 -1.74040e+01
       H -1.55676e+01  7.24614e+00 -1.66630e+01
       O -1.21726e+01 -1.36464e+01 -7.65756e+00
       H -1.16825e+01 -1.44159e+01 -8.02857e+00
       H -1.30535e+01 -1.39897e+01 -7.41432e+00
       O -1.33661e+01 -3.05133e+01 -2.92520e+01
       H -1.39239e+01 -3.02288e+01 -2.85072e+01
       H -1.28720e+01 -2.96834e+01 -2.93620e+01
       O -2.01367e+01 -2.79192e+01 -8.87104e+00
       H -2.07951e+01 -2.86791e+01 -8.93046e+00
       H -1.94993e+01 -2.82212e+01 -8.22124e+00
       O -1.97462e+01 -4.03385e+01 -7.78714e+00
       H -1.91061e+01 -3.96853e+01 -8.15330e+00
       H -1.91533e+01 -4.11130e+01 -7.71923e+00
       O -1.12529e-01  1.87020e+00 -4.82516e+00
       H -2.45841e-02  2.07866e+00 -3.85687e+00
       H -8.04768e-01  1.23552e+00 -4.85373e+00
       O -8.56050e+00 -3.25949e+01 -2.52247e+01
       H -8.66273e+00 -3.22505e+01 -2.43387e+01
       H -7.92698e+00 -3.32934e+01 -2.49796e+01
       O  2.27210e+00 -1.93658e+00 -2.25854e+01
       H  1.86400e+00 -1.89325e+00 -2.16401e+01
       H  3.22085e+00 -2.18743e+00 -2.23560e+01
       O -3.49636e+01 -2.05149e+01 -1.30809e+01
       H -3.58459e+01 -2.01405e+01 -1.28642e+01
       H -3.45653e+01 -1.97669e+01 -1.34760e+01
       O -1.44570e+01 -4.56239e+01 -2.21587e+01
       H -1.42338e+01 -4.46619e+01 -2.21902e+01
       H -1.54028e+01 -4.56317e+01 -2.22310e+01
       O -6.63080e+00 -2.14401e+01 -9.60956e+00
       H -6.90130e+00 -2.23062e+01 -9.50669e+00
       H -5.68398e+00 -2.14732e+01 -9.69622e+00
       O -3.58037e+00 -1.93627e+01 -1.94757e+01
       H -3.18127e+00 -1.85060e+01 -1.94022e+01
       H -4.51707e+00 -1.92554e+01 -1.91730e+01
       O -2.21040e+01 -3.21542e+01 -1.04390e+01
       H -2.21767e+01 -3.28269e+01 -9.70879e+00
       H -2.30559e+01 -3.18789e+01 -1.06580e+01
       O -3.39985e+01 -1.46012e+01 -1.46380e+01
       H -3.31324e+01 -1.43254e+01 -1.44469e+01
       H -3.43979e+01 -1.36985e+01 -1.46506e+01
       O -1.87381e+01 -2.01800e+01 -2.68919e+01
       H -1.89642e+01 -2.08997e+01 -2.62442e+01
       H -1.82004e+01 -1.96424e+01 -2.63653e+01
       O -1.99187e+01  1.44347e+00 -2.45196e+01
       H -2.06875e+01  1.30411e+00 -2.39390e+01
       H -1.99444e+01  7.72452e-01 -2.52256e+01
       O -2.02668e+01 -1.00475e+01 -1.24135e+01
       H -1.94298e+01 -1.06049e+01 -1.22746e+01
       H -1.99896e+01 -9.15985e+00 -1.21620e+01
       O -2.19380e+01 -2.63978e+01  9.03704e+00
       H -2.14967e+01 -2.71993e+01  8.62184e+00
       H -2.10647e+01 -2.59179e+01  9.08621e+00
       O  4.21169e+00 -1.47735e+01 -7.33128e+00
       H  3.68781e+00 -1.54461e+01 -6.84406e+00
       H  3.75446e+00 -1.48253e+01 -8.22237e+00
       O -1.56674e+01 -2.46063e+01 -3.07672e+01
       H -1.48749e+01 -2.50843e+01 -3.04607e+01
       H -1.57761e+01 -2.40309e+01 -2.99507e+01
       O -1.04420e+01 -2.30510e+01 -2.79383e+01
       H -1.07109e+01 -2.39438e+01 -2.81747e+01
       H -1.12557e+01 -2.25113e+01 -2.82556e+01
       O -2.50269e+01 -3.02638e+01  1.06562e+00
       H -2.53656e+01 -2.93234e+01  8.85162e-01
       H -2.48679e+01 -3.04925e+01  8.77491e-02
       O -2.57374e+01 -2.60025e+01 -3.10363e+01
       H -2.59247e+01 -2.66496e+01 -3.03472e+01
       H -2.47682e+01 -2.59060e+01 -3.09299e+01
       O  1.55332e-01 -1.88694e+01  1.08904e+01
       H -3.66741e-01 -1.95457e+01  1.03806e+01
       H  1.05723e+00 -1.92103e+01  1.09294e+01
       O -4.07833e+01 -8.93932e+00  5.26116e-01
       H -4.02440e+01 -9.66649e+00  3.41581e-01
       H -4.15880e+01 -9.31584e+00  8.29793e-02
       O -1.79201e+01 -2.37299e+01 -4.83187e+00
       H -1.72387e+01 -2.39037e+01 -5.48396e+00
       H -1.74356e+01 -2.39383e+01 -4.01176e+00
       O -1.85251e+01 -2.64256e+01 -2.71171e+01
       H -1.81896e+01 -2.67667e+01 -2.63053e+01
       H -1.79731e+01 -2.56337e+01 -2.73100e+01
       O -9.83088e+00 -1.83655e+01 -1.29423e+01
       H -1.02725e+01 -1.92082e+01 -1.30431e+01
       H -9.06725e+00 -1.87467e+01 -1.24731e+01
       O -1.21044e+01 -1.27020e+01 -1.02620e+01
       H -1.29190e+01 -1.21305e+01 -1.01061e+01
       H -1.20653e+01 -1.33005e+01 -9.45635e+00
       O -2.40507e+01  1.63307e+01 -1.66439e+01
       H -2.49622e+01  1.61139e+01 -1.65000e+01
       H -2.38574e+01  1.67198e+01 -1.57188e+01
       O -4.99559e+00 -2.54127e+01 -1.98068e+01
       H -4.58944e+00 -2.46238e+01 -2.02473e+01
       H -5.80074e+00 -2.49116e+01 -1.95710e+01
       O -9.86704e+00 -2.52069e+01 -3.84563e+01
       H -9.11953e+00 -2.58802e+01 -3.83750e+01
       H -9.85740e+00 -2.49850e+01 -3.94099e+01
       O -8.08102e+00 -2.10398e+01 -1.23019e+01
       H -7.19358e+00 -2.13396e+01 -1.22443e+01
       H -8.19069e+00 -2.08725e+01 -1.13422e+01
       O -9.22667e+00  6.54936e-01 -2.00631e+01
       H -9.92401e+00  1.24717e+00 -2.01905e+01
       H -8.47940e+00  1.23324e+00 -1.99778e+01
       O -1.46447e+01 -2.34793e+01 -3.43601e+01
       H -1.52938e+01 -2.41669e+01 -3.42182e+01
       H -1.39603e+01 -2.40568e+01 -3.47748e+01
       O -4.25312e+01 -3.01238e+01 -1.62631e+01
       H -4.29018e+01 -2.91885e+01 -1.63650e+01
       H -4.31767e+01 -3.05873e+01 -1.68014e+01
       O -1.63917e+01 -1.95978e+01  1.07540e+01
       H -1.65141e+01 -1.87792e+01  1.12410e+01
       H -1.72520e+01 -2.00087e+01  1.09541e+01
       O -3.07046e+00 -4.03185e-01  1.57999e-01
       H -3.68926e+00 -9.91952e-01 -3.16089e-01
       H -3.27463e+00  5.08867e-01 -1.95982e-01
       O -1.62411e+01 -2.75272e+01 -1.24833e+01
       H -1.56407e+01 -2.68546e+01 -1.28354e+01
       H -1.62101e+01 -2.80992e+01 -1.32539e+01
       O  1.53453e+00 -1.11165e+01  9.44672e+00
       H  6.09098e-01 -1.10258e+01  9.72709e+00
       H  1.84838e+00 -1.02945e+01  9.03114e+00
       O -1.11667e+01 -5.41846e+00 -7.93996e+00
       H -1.08703e+01 -5.36351e+00 -6.97840e+00
       H -1.08369e+01 -4.56573e+00 -8.27627e+00
       O  1.08468e+01  1.12887e+01  1.28844e+00
       H  1.06220e+01  1.03500e+01  1.21702e+00
       H  1.07300e+01  1.15436e+01  2.20533e+00
       O -1.19545e+01 -5.50152e+00 -3.09254e+01
       H -1.26567e+01 -5.62932e+00 -3.02937e+01
       H -1.12200e+01 -5.43774e+00 -3.02849e+01
       O -9.59159e+00 -1.11933e+01 -2.91345e+01
       H -9.02469e+00 -1.18940e+01 -2.95001e+01
       H -9.00744e+00 -1.09232e+01 -2.84383e+01
       O -1.63020e+01 -1.27490e+01 -2.62803e+01
       H -1.62279e+01 -1.27009e+01 -2.52923e+01
       H -1.72526e+01 -1.24957e+01 -2.64021e+01
       O -1.77957e+01 -3.05655e+01 -3.04441e+01
       H -1.85120e+01 -3.06803e+01 -3.10360e+01
       H -1.81714e+01 -3.00140e+01 -2.96777e+01
       O -5.47475e+00  4.83353e-01  3.82551e+00
       H -4.73408e+00  1.10570e-01  3.36471e+00
       H -5.94980e+00 -3.60959e-01  4.06268e+00
       O -1.74133e+01 -2.07747e+01 -7.70834e+00
       H -1.80689e+01 -2.12690e+01 -7.28135e+00
       H -1.65780e+01 -2.08744e+01 -7.12642e+00
       O -3.89763e+00 -5.74460e+00 -1.44960e+01
       H -4.74946e+00 -5.70083e+00 -1.49207e+01
       H -3.30410e+00 -5.87611e+00 -1.52463e+01
       O -4.72321e+00 -1.25578e+01 -3.67194e+00
       H -5.30433e+00 -1.18353e+01 -3.83917e+00
       H -3.97712e+00 -1.21798e+01 -4.19054e+00
       O  1.69813e+01  1.44969e+01 -2.67197e+01
       H  1.78527e+01  1.42350e+01 -2.69872e+01
       H  1.65912e+01  1.36796e+01 -2.64072e+01
       O -2.36907e+01 -2.03623e+01 -5.77681e+00
       H -2.43232e+01 -1.98861e+01 -6.44753e+00
       H -2.28720e+01 -1.99510e+01 -5.95788e+00
       O -2.07099e+01 -3.52486e+01 -1.10268e+01
       H -2.02637e+01 -3.44743e+01 -1.14101e+01
       H -2.14904e+01 -3.48370e+01 -1.06221e+01
       O -1.26576e+01 -2.52878e+01 -9.21578e+00
       H -1.18909e+01 -2.54995e+01 -8.62242e+00
       H -1.25698e+01 -2.42743e+01 -9.11919e+00
       O -7.06864e+00 -2.81290e+01 -1.98277e+01
       H -6.57407e+00 -2.72909e+01 -2.00193e+01
       H -6.71962e+00 -2.87241e+01 -2.04507e+01
       O -2.11880e+01 -3.40645e+00 -1.97426e+01
       H -2.08129e+01 -3.14847e+00 -1.88743e+01
       H -2.12271e+01 -2.56394e+00 -2.02243e+01
       O -1.97623e+01 -2.53428e+01 -2.38461e+01
       H -1.91556e+01 -2.55681e+01 -2.31723e+01
       H -1.93070e+01 -2.57619e+01 -2.45881e+01
       O -1.31655e+01 -8.73240e+00 -5.85100e+00
       H -1.24626e+01 -8.81190e+00 -5.26704e+00
       H -1.36332e+01 -9.52416e+00 -5.49325e+00
       O -1.76310e+01 -4.90843e+01 -5.17990e+01
       H -1.78561e+01 -4.82797e+01 -5.12424e+01
       H -1.70775e+01 -4.86597e+01 -5.24748e+01
       O -1.53292e+01 -1.82500e+01 -9.73831e+00
       H -1.51638e+01 -1.84010e+01 -1.07096e+01
       H -1.45672e+01 -1.88641e+01 -9.45170e+00
       O -1.78093e+01 -3.40274e+01 -1.85922e+01
       H -1.85451e+01 -3.46904e+01 -1.86008e+01
       H -1.80845e+01 -3.34825e+01 -1.93103e+01
       O -1.68655e+01 -1.09632e+01 -1.13974e+01
       H -1.63654e+01 -1.14562e+01 -1.07875e+01
       H -1.72716e+01 -1.02608e+01 -1.07930e+01
       O -2.55127e+01 -1.83633e+01 -1.98333e+01
       H -2.57227e+01 -1.84729e+01 -2.08020e+01
       H -2.49590e+01 -1.75560e+01 -1.98895e+01
       O -1.17063e+01 -1.70205e+01 -3.94635e+00
       H -1.18749e+01 -1.77958e+01 -4.58172e+00
       H -1.26037e+01 -1.65917e+01 -4.03076e+00
       O -8.23567e+00 -2.66055e+01 -4.51725e+01
       H -7.80041e+00 -2.63523e+01 -4.59916e+01
       H -9.14384e+00 -2.62832e+01 -4.54727e+01
       O -3.93005e+00 -2.71807e+01 -1.78076e+01
       H -4.36421e+00 -2.64982e+01 -1.72179e+01
       H -4.27154e+00 -2.68707e+01 -1.86440e+01
       O -1.76060e+01 -1.46500e+01 -1.39400e+01
       H -1.72000e+01 -1.49955e+01 -1.31687e+01
       H -1.82029e+01 -1.53990e+01 -1.41789e+01
       O -2.48964e+01 -1.06185e+01 -2.14447e+01
       H -2.40185e+01 -1.05988e+01 -2.19374e+01
       H -2.53144e+01 -9.86275e+00 -2.18771e+01
       O -1.06373e+00 -1.92721e+00 -2.19750e+01
       H -5.61529e-01 -1.22204e+00 -2.24447e+01
       H -3.49126e-01 -2.37462e+00 -2.14141e+01
       O -2.14291e+00 -6.00053e+00  1.06528e+01
       H -2.57211e+00 -6.34647e+00  1.14605e+01
       H -1.42278e+00 -5.49125e+00  1.10164e+01
       O -2.04744e+01 -2.35122e+01  1.22323e+01
       H -2.04337e+01 -2.29658e+01  1.14302e+01
       H -1.95232e+01 -2.36697e+01  1.24199e+01
       O -2.39976e+01 -1.00627e+01 -3.70565e+00
       H -2.30560e+01 -1.03414e+01 -3.81462e+00
       H -2.40579e+01 -9.37658e+00 -4.35872e+00
       O -3.63869e+01 -1.39534e+01 -7.52059e+00
       H -3.64082e+01 -1.49678e+01 -7.70635e+00
       H -3.67546e+01 -1.36864e+01 -8.38938e+00
       O -1.82807e+00 -6.28049e+00 -1.33351e+00
       H -1.82739e+00 -5.88024e+00 -2.21509e+00
       H -9.71843e-01 -6.80542e+00 -1.28045e+00
       O -2.48470e+01 -1.62105e+01 -5.01091e+01
       H -2.39306e+01 -1.60070e+01 -4.97062e+01
       H -2.46898e+01 -1.70862e+01 -5.05431e+01
       O -1.45208e+01 -2.57610e+01 -1.36552e+01
       H -1.38691e+01 -2.65109e+01 -1.37889e+01
       H -1.44467e+01 -2.53842e+01 -1.45753e+01
       O  1.41456e+00 -1.19925e+01 -2.41348e+01
       H  1.09574e+00 -1.10688e+01 -2.40581e+01
       H  2.37118e+00 -1.17573e+01 -2.41461e+01
       O -5.42950e+01 -1.37305e+01  2.41656e-01
       H -5.42125e+01 -1.46536e+01  5.47686e-01
       H -5.33652e+01 -1.34174e+01  3.78384e-01
       O -4.29539e+00 -1.36438e+01 -7.76468e+00
       H -3.43290e+00 -1.32665e+01 -7.98375e+00
       H -4.77545e+00 -1.28676e+01 -7.96028e+00
       O -1.25150e+01 -1.43763e+01  2.43324e+01
       H -1.28625e+01 -1.47331e+01  2.35231e+01
       H -1.33076e+01 -1.39188e+01  2.46480e+01
       O -1.27418e+01 -3.45592e+01 -3.73015e+01
       H -1.19135e+01 -3.48068e+01 -3.78184e+01
       H -1.29439e+01 -3.53074e+01 -3.67123e+01
       O -1.43337e+01 -1.91308e+01 -1.21965e+01
       H -1.38206e+01 -1.99561e+01 -1.20738e+01
       H -1.36278e+01 -1.85303e+01 -1.24855e+01
       O -1.16435e+01 -1.05029e+01  9.87257e+00
       H -1.12336e+01 -1.07658e+01  9.02954e+00
       H -1.09876e+01 -9.75202e+00  1.02120e+01
       O -1.30944e+01 -5.32780e+00 -4.85745e+00
       H -1.32046e+01 -6.12927e+00 -5.33289e+00
       H -1.21035e+01 -5.28390e+00 -4.88920e+00
       O -3.43539e+01 -7.54299e+00 -2.62022e+00
       H -3.42382e+01 -6.68384e+00 -2.12557e+00
       H -3.47062e+01 -8.04745e+00 -1.90722e+00
       O -1.85214e+01 -2.07375e+01 -2.96742e+01
       H -1.82035e+01 -1.99378e+01 -3.00598e+01
       H -1.83708e+01 -2.06119e+01 -2.87673e+01
       O -1.16093e+01 -1.28984e+01  1.69310e-01
       H -1.12773e+01 -1.32164e+01  9.58232e-01
       H -1.08644e+01 -1.29443e+01 -3.90482e-01
       O -1.56444e+01 -3.54772e+01 -2.58210e+00
       H -1.54636e+01 -3.53222e+01 -3.49611e+00
       H -1.49781e+01 -3.50225e+01 -2.12767e+00
       O -6.35875e+00 -4.22142e+01 -8.28643e+00
       H -6.55880e+00 -4.13074e+01 -8.26417e+00
       H -5.44507e+00 -4.21747e+01 -8.82670e+00
       O -2.13091e+00 -4.57139e+00  6.10924e-01
       H -2.22392e+00 -5.16621e+00 -1.59425e-01
       H -1.59296e+00 -3.85845e+00  1.69616e-01
       O -2.70137e+01 -2.36146e+01  1.09635e+00
       H -2.77284e+01 -2.40813e+01  5.82676e-01
       H -2.63135e+01 -2.42462e+01  9.50687e-01
       O  5.15895e+00  7.91880e+00 -3.43856e-01
       H  4.69764e+00  7.23542e+00  1.98912e-01
       H  4.79727e+00  7.69777e+00 -1.26196e+00
       O -1.05414e+01 -2.93251e+01 -1.26179e+01
       H -1.08504e+01 -2.94352e+01 -1.35161e+01
       H -1.07369e+01 -2.83538e+01 -1.25120e+01
       O -1.92490e+01 -2.50015e+01 -7.86338e+00
       H -2.01404e+01 -2.52906e+01 -7.52887e+00
       H -1.88138e+01 -2.56362e+01 -7.28282e+00
       O -2.16051e+01 -2.37040e+01 -1.27694e+01
       H -2.19334e+01 -2.28286e+01 -1.24494e+01
       H -2.06813e+01 -2.36870e+01 -1.24158e+01
       O -1.98274e+00 -5.16154e+00 -4.10381e+00
       H -2.44718e+00 -4.98462e+00 -4.93244e+00
       H -1.98092e+00 -4.16775e+00 -3.75855e+00
       O -6.81286e+00 -1.54553e+01 -1.57367e+01
       H -7.52777e+00 -1.55055e+01 -1.51278e+01
       H -7.36380e+00 -1.54362e+01 -1.65626e+01
       O -1.65959e+01 -2.43714e+01 -9.59553e+00
       H -1.67060e+01 -2.45819e+01 -8.65985e+00
       H -1.62398e+01 -2.33883e+01 -9.67565e+00
       O -1.14046e-01 -1.72286e+01 -8.53806e+00
       H -8.61726e-01 -1.68006e+01 -8.90327e+00
       H -4.68894e-01 -1.75333e+01 -7.72007e+00
       O -1.30423e+01 -2.76868e+01 -1.47990e+01
       H -1.30136e+01 -2.85749e+01 -1.50910e+01
       H -1.34197e+01 -2.72516e+01 -1.55843e+01
       O -2.14873e+01 -1.26215e+01 -2.18555e+01
       H -2.21430e+01 -1.30909e+01 -2.24222e+01
       H -2.08236e+01 -1.33108e+01 -2.17217e+01
       O -2.45735e+01 -3.54360e-01 -9.73429e+00
       H -2.49765e+01  4.61647e-01 -1.01233e+01
       H -2.43325e+01 -8.38426e-01 -1.05024e+01
       O -1.01525e+01 -6.08168e-01 -5.86244e+00
       H -9.71522e+00  2.36656e-01 -6.07754e+00
       H -9.75558e+00 -1.24762e+00 -6.51551e+00
       O -2.45007e+01 -1.94610e+00 -1.19676e+01
       H -2.49180e+01 -2.10125e+00 -1.28097e+01
       H -2.36581e+01 -2.39138e+00 -1.21039e+01
       O -2.74018e+00  3.22173e+00 -1.92797e+01
       H -1.99777e+00  3.09117e+00 -1.97435e+01
       H -2.24896e+00  3.46256e+00 -1.84573e+01
       O -2.33040e+01 -7.67737e+00 -4.91922e+00
       H -2.28002e+01 -6.99228e+00 -5.50883e+00
       H -2.38720e+01 -6.97929e+00 -4.57101e+00
       O -1.55886e+01 -2.07563e+01 -5.65017e+00
       H -1.63404e+01 -2.04656e+01 -5.09597e+00
       H -1.49470e+01 -2.08168e+01 -4.90274e+00
       O  3.80972e-01  9.39270e+00  6.03045e+00
       H  3.48727e-02  9.35578e+00  5.13717e+00
       H  4.87554e-01  8.43262e+00  6.25552e+00
       O -2.41672e+01 -1.86523e+01 -3.69569e+00
       H -2.43226e+01 -1.92705e+01 -2.91390e+00
       H -2.42111e+01 -1.92812e+01 -4.47193e+00
       O -4.34717e+00 -2.41042e+01 -3.21515e+01
       H -3.89929e+00 -2.41016e+01 -3.13026e+01
       H -5.14897e+00 -2.45878e+01 -3.19102e+01
       O -1.86820e+00 -9.13184e+00 -1.21473e+01
       H -1.44691e+00 -9.76458e+00 -1.28504e+01
       H -2.64679e+00 -8.95092e+00 -1.27379e+01
       O -4.65683e+00 -2.45080e+01 -2.61111e-01
       H -5.16035e+00 -2.53531e+01 -1.91270e-01
       H -4.53247e+00 -2.42056e+01  6.77525e-01
       O -2.48370e+01 -1.38364e+01 -1.40087e+01
       H -2.55936e+01 -1.34195e+01 -1.35941e+01
       H -2.48779e+01 -1.47182e+01 -1.36307e+01
       O -1.62215e+01 -9.05366e+00 -2.41639e+01
       H -1.54608e+01 -9.69312e+00 -2.44465e+01
       H -1.67289e+01 -9.57848e+00 -2.35375e+01
       O -2.04507e+01 -1.81882e+01 -8.30698e+00
       H -2.09795e+01 -1.85440e+01 -7.54591e+00
       H -1.95352e+01 -1.80552e+01 -7.91461e+00
       O -7.62724e+00 -2.45527e+01 -1.36058e+01
       H -7.10896e+00 -2.39222e+01 -1.42021e+01
       H -6.96644e+00 -2.48890e+01 -1.30211e+01
       O -1.96380e+01  5.57446e+00 -2.29455e+01
       H -1.98575e+01  5.39700e+00 -2.38549e+01
       H -2.04933e+01  5.73790e+00 -2.24384e+01
       O  6.48982e+00 -2.12790e+01 -2.23300e+01
       H  6.57639e+00 -2.21843e+01 -2.27720e+01
       H  5.59093e+00 -2.10700e+01 -2.24365e+01
       O -1.29646e+01 -3.31332e+01 -1.32250e+01
       H -1.24825e+01 -3.35748e+01 -1.25337e+01
       H -1.22498e+01 -3.30032e+01 -1.39092e+01
       O -1.86682e+01 -6.97333e+00  5.61994e+00
       H -1.88505e+01 -7.66127e+00  6.27120e+00
       H -1.87882e+01 -7.33903e+00  4.74544e+00
       O -2.01892e+01 -2.54910e+01 -1.76521e+01
       H -2.11058e+01 -2.53072e+01 -1.75881e+01
       H -2.00560e+01 -2.61913e+01 -1.69826e+01
       O -8.07512e+00 -1.74743e+01 -1.94461e+01
       H -7.87484e+00 -1.72104e+01 -1.84907e+01
       H -8.00603e+00 -1.66508e+01 -1.99429e+01
       O -3.99595e+01 -2.65812e+01 -2.68140e+01
       H -4.04512e+01 -2.71615e+01 -2.74246e+01
       H -3.90860e+01 -2.66457e+01 -2.71715e+01
       O -4.07386e+01 -1.95643e+01 -7.51368e+00
       H -4.15726e+01 -1.94012e+01 -7.05578e+00
       H -4.08167e+01 -2.03778e+01 -8.08508e+00
       O  2.69343e+00 -5.16538e+00  1.06892e+00
       H  3.13789e+00 -5.90082e+00  1.48317e+00
       H  1.81693e+00 -5.23616e+00  1.59731e+00
       O -1.05564e+01 -2.13542e+01 -4.78437e+01
       H -9.77503e+00 -2.14076e+01 -4.72308e+01
       H -1.12123e+01 -2.08795e+01 -4.72639e+01
       O -4.86243e+00 -2.30094e+01 -2.44740e+01
       H -4.82039e+00 -2.21031e+01 -2.46847e+01
       H -5.03513e+00 -2.34448e+01 -2.53496e+01
       O -5.40487e+00 -1.58339e+01  1.95024e+00
       H -4.59922e+00 -1.62042e+01  2.32896e+00
       H -5.98170e+00 -1.66534e+01  1.93091e+00
       O -4.58025e+01 -1.60507e+01 -6.28287e+00
       H -4.62686e+01 -1.57190e+01 -5.45427e+00
       H -4.64715e+01 -1.66312e+01 -6.58211e+00
       O -2.39672e+01 -1.35934e+01 -7.50252e-01
       H -2.36093e+01 -1.40473e+01  1.15941e-02
       H -2.32255e+01 -1.29735e+01 -8.85148e-01
       O -2.77038e+01  1.69070e+01 -1.09880e+01
       H -2.74948e+01  1.73263e+01 -1.01545e+01
       H -2.86653e+01  1.69119e+01 -1.09515e+01
       O  7.32861e+00  1.50472e+00  1.94180e+00
       H  6.90747e+00  2.05036e+00  2.63154e+00
       H  8.02672e+00  2.13782e+00  1.61027e+00
       O -1.06183e+01 -3.17543e+00  1.79339e+00
       H -9.83170e+00 -2.63713e+00  2.19649e+00
       H -1.08606e+01 -3.65074e+00  2.55805e+00
       O -2.14238e+01 -1.48474e+01 -1.27838e+01
       H -2.11372e+01 -1.55918e+01 -1.22202e+01
       H -2.22101e+01 -1.45302e+01 -1.22536e+01
       O -4.53624e+01 -2.06914e+01  1.05970e+01
       H -4.53412e+01 -2.14963e+01  1.00362e+01
       H -4.47552e+01 -2.01294e+01  1.00474e+01
       O -1.93209e+01  9.06244e+00 -2.38217e+01
       H -1.88272e+01  8.28281e+00 -2.35291e+01
       H -1.92340e+01  9.07355e+00 -2.48205e+01
       O -1.29550e+01 -1.84142e+01 -2.35700e+01
       H -1.24312e+01 -1.92499e+01 -2.35795e+01
       H -1.22230e+01 -1.77633e+01 -2.37013e+01
       O -1.08283e+01 -1.97107e+01  2.85721e+00
       H -9.99149e+00 -1.98926e+01  3.31978e+00
       H -1.13800e+01 -2.04143e+01  3.25382e+00
       O -1.22197e+01 -4.64852e-02 -2.62117e+01
       H -1.28097e+01 -2.83843e-01 -2.55017e+01
       H -1.13687e+01 -3.98485e-01 -2.59041e+01
       O -1.39311e+01 -7.29324e+00 -1.37395e+01
       H -1.35015e+01 -6.91798e+00 -1.29734e+01
       H -1.35085e+01 -8.17282e+00 -1.37513e+01
       O -1.06780e+01 -1.38082e+01  2.61513e+00
       H -9.72780e+00 -1.40235e+01  2.61196e+00
       H -1.09962e+01 -1.42383e+01  3.44272e+00
       O -3.06666e+01 -1.49433e+00 -2.41211e+01
       H -3.01254e+01 -7.90534e-01 -2.37478e+01
       H -2.99400e+01 -2.08907e+00 -2.44080e+01
       O -3.43443e+01 -2.46031e+01 -9.19080e+00
       H -3.41483e+01 -2.55621e+01 -9.33738e+00
       H -3.49071e+01 -2.46625e+01 -8.39068e+00
       O -2.21344e+01 -2.63874e+01 -1.02561e+01
       H -2.12859e+01 -2.65582e+01 -9.73793e+00
       H -2.21500e+01 -2.54017e+01 -1.03539e+01
       O -1.07698e+01 -1.35178e+01 -3.95269e+01
       H -1.01994e+01 -1.28321e+01 -3.91551e+01
       H -1.05503e+01 -1.43225e+01 -3.90683e+01
       O -1.51759e+01 -9.48450e+00 -1.34017e+00
       H -1.57219e+01 -1.02598e+01 -1.05631e+00
       H -1.57839e+01 -8.73245e+00 -1.56802e+00
       O -2.49457e+01 -2.65569e+01 -3.56758e+01
       H -2.40597e+01 -2.62289e+01 -3.58450e+01