4
# CELL(abcABC): 1000.00000  1000.00000  1000.00000    90.00000    90.00000    90.00000  Step:         780  Bead:       0 positions{angstrom}  cell{angstrom}
       O -3.13644e+00  1.06599e+00  3.52116e-01
       H -3.23258e+00  2.77928e-01 -1.16181e-01
       H -2.73255e+00  9.21621e-01  1.16885e+00
       H -3.63489e+00  1.95025e+00  4.37238e-02
