4
# CELL(abcABC): 1000.00000  1000.00000  1000.00000    90.00000    90.00000    90.00000  Step:           0  Bead:       0 positions{angstrom}  cell{angstrom}
       O -3.16331e+00  1.05847e+00  3.54859e-01
       H -2.70517e+00  1.98782e-01  4.22875e-01
       H -2.80111e+00  1.65231e+00  1.01673e+00
       H -3.66727e+00  1.41794e+00 -3.86784e-01
4
# CELL(abcABC): 1000.00000  1000.00000  1000.00000    90.00000    90.00000    90.00000  Step:           1  Bead:       0 positions{angstrom}  cell{angstrom}
       O -3.16159e+00  1.05873e+00  3.54318e-01
       H -2.71541e+00  1.92013e-01  4.26895e-01
       H -2.80079e+00  1.65187e+00  1.01817e+00
       H -3.68466e+00  1.42096e+00 -3.83648e-01
4
# CELL(abcABC): 1000.00000  1000.00000  1000.00000    90.00000    90.00000    90.00000  Step:           2  Bead:       0 positions{angstrom}  cell{angstrom}
       O -3.15989e+00  1.05894e+00  3.53756e-01
       H -2.72694e+00  1.86429e-01  4.31008e-01
       H -2.79855e+00  1.65183e+00  1.02016e+00
       H -3.70233e+00  1.42330e+00 -3.80839e-01
4
# CELL(abcABC): 1000.00000  1000.00000  1000.00000    90.00000    90.00000    90.00000  Step:           3  Bead:       0 positions{angstrom}  cell{angstrom}
       O -3.15810e+00  1.05918e+00  3.53095e-01
       H -2.73899e+00  1.80586e-01  4.36546e-01
       H -2.79635e+00  1.65316e+00  1.02325e+00
       H -3.72088e+00  1.42408e+00 -3.78976e-01
4
# CELL(abcABC): 1000.00000  1000.00000  1000.00000    90.00000    90.00000    90.00000  Step:           4  Bead:       0 positions{angstrom}  cell{angstrom}
       O -3.15629e+00  1.05949e+00  3.52491e-01
       H -2.75229e+00  1.74410e-01  4.40698e-01
       H -2.79343e+00  1.65523e+00  1.02612e+00
       H -3.73923e+00  1.42317e+00 -3.76408e-01
4
# CELL(abcABC): 1000.00000  1000.00000  1000.00000    90.00000    90.00000    90.00000  Step:           5  Bead:       0 positions{angstrom}  cell{angstrom}
       O -3.15435e+00  1.05976e+00  3.51907e-01
       H -2.76732e+00  1.69058e-01  4.44349e-01
       H -2.79125e+00  1.65828e+00  1.02996e+00
       H -3.75719e+00  1.42121e+00 -3.74633e-01
4
# CELL(abcABC): 1000.00000  1000.00000  1000.00000    90.00000    90.00000    90.00000  Step:           6  Bead:       0 positions{angstrom}  cell{angstrom}
       O -3.15228e+00  1.06022e+00  3.51344e-01
       H -2.78308e+00  1.64605e-01  4.46910e-01
       H -2.78998e+00  1.65918e+00  1.03243e+00
       H -3.77558e+00  1.41753e+00 -3.70719e-01
4
# CELL(abcABC): 1000.00000  1000.00000  1000.00000    90.00000    90.00000    90.00000  Step:           7  Bead:       0 positions{angstrom}  cell{angstrom}
       O -3.15026e+00  1.06071e+00  3.50561e-01
       H -2.79800e+00  1.60571e-01  4.50710e-01
       H -2.78924e+00  1.65892e+00  1.03520e+00
       H -3.79351e+00  1.41393e+00 -3.64863e-01
4
# CELL(abcABC): 1000.00000  1000.00000  1000.00000    90.00000    90.00000    90.00000  Step:           8  Bead:       0 positions{angstrom}  cell{angstrom}
       O -3.14835e+00  1.06138e+00  3.49791e-01
       H -2.81235e+00  1.56793e-01  4.53888e-01
       H -2.78787e+00  1.65672e+00  1.03676e+00
       H -3.81087e+00  1.40932e+00 -3.57381e-01
4
# CELL(abcABC): 1000.00000  1000.00000  1000.00000    90.00000    90.00000    90.00000  Step:           9  Bead:       0 positions{angstrom}  cell{angstrom}
       O -3.14653e+00  1.06230e+00  3.48832e-01
       H -2.82685e+00  1.52294e-01  4.58282e-01
       H -2.78574e+00  1.65354e+00  1.03842e+00
       H -3.82731e+00  1.40244e+00 -3.48215e-01
4
# CELL(abcABC): 1000.00000  1000.00000  1000.00000    90.00000    90.00000    90.00000  Step:          10  Bead:       0 positions{angstrom}  cell{angstrom}
       O -3.14479e+00  1.06330e+00  3.47924e-01
       H -2.84126e+00  1.47929e-01  4.62018e-01
       H -2.78367e+00  1.64991e+00  1.03890e+00
       H -3.84264e+00  1.39457e+00 -3.38012e-01
4
# CELL(abcABC): 1000.00000  1000.00000  1000.00000    90.00000    90.00000    90.00000  Step:          11  Bead:       0 positions{angstrom}  cell{angstrom}
       O -3.14313e+00  1.06444e+00  3.47076e-01
       H -2.85528e+00  1.44554e-01  4.64553e-01
       H -2.78298e+00  1.64494e+00  1.03865e+00
       H -3.85560e+00  1.38485e+00 -3.26837e-01
4
# CELL(abcABC): 1000.00000  1000.00000  1000.00000    90.00000    90.00000    90.00000  Step:          12  Bead:       0 positions{angstrom}  cell{angstrom}
       O -3.14173e+00  1.06573e+00  3.46208e-01
       H -2.86768e+00  1.41384e-01  4.66871e-01
       H -2.78235e+00  1.63794e+00  1.03736e+00
       H -3.86610e+00  1.37445e+00 -3.14094e-01
4
# CELL(abcABC): 1000.00000  1000.00000  1000.00000    90.00000    90.00000    90.00000  Step:          13  Bead:       0 positions{angstrom}  cell{angstrom}
       O -3.14054e+00  1.06710e+00  3.45207e-01
       H -2.87959e+00  1.39385e-01  4.69551e-01
       H -2.78016e+00  1.63041e+00  1.03650e+00
       H -3.87520e+00  1.36231e+00 -3.00018e-01
4
# CELL(abcABC): 1000.00000  1000.00000  1000.00000    90.00000    90.00000    90.00000  Step:          14  Bead:       0 positions{angstrom}  cell{angstrom}
       O -3.13959e+00  1.06844e+00  3.44037e-01
       H -2.88963e+00  1.37821e-01  4.72806e-01
       H -2.77701e+00  1.62356e+00  1.03643e+00
       H -3.88345e+00  1.34932e+00 -2.84636e-01
4
# CELL(abcABC): 1000.00000  1000.00000  1000.00000    90.00000    90.00000    90.00000  Step:          15  Bead:       0 positions{angstrom}  cell{angstrom}
       O -3.13874e+00  1.06964e+00  3.42513e-01
       H -2.90116e+00  1.36618e-01  4.78401e-01
       H -2.77392e+00  1.61767e+00  1.03763e+00
       H -3.88852e+00  1.33748e+00 -2.67242e-01
4
# CELL(abcABC): 1000.00000  1000.00000  1000.00000    90.00000    90.00000    90.00000  Step:          16  Bead:       0 positions{angstrom}  cell{angstrom}
       O -3.13807e+00  1.07067e+00  3.40861e-01
       H -2.91121e+00  1.36001e-01  4.83840e-01
       H -2.77049e+00  1.61357e+00  1.04005e+00
       H -3.89243e+00  1.32582e+00 -2.48872e-01
4
# CELL(abcABC): 1000.00000  1000.00000  1000.00000    90.00000    90.00000    90.00000  Step:          17  Bead:       0 positions{angstrom}  cell{angstrom}
       O -3.13743e+00  1.07158e+00  3.39109e-01
       H -2.92015e+00  1.36846e-01  4.89645e-01
       H -2.76771e+00  1.61095e+00  1.04249e+00
       H -3.89654e+00  1.31317e+00 -2.29307e-01
4
# CELL(abcABC): 1000.00000  1000.00000  1000.00000    90.00000    90.00000    90.00000  Step:          18  Bead:       0 positions{angstrom}  cell{angstrom}
       O -3.13680e+00  1.07227e+00  3.37303e-01
       H -2.92973e+00  1.39430e-01  4.95724e-01
       H -2.76366e+00  1.60912e+00  1.04557e+00
       H -3.90096e+00  1.30144e+00 -2.09794e-01
4
# CELL(abcABC): 1000.00000  1000.00000  1000.00000    90.00000    90.00000    90.00000  Step:          19  Bead:       0 positions{angstrom}  cell{angstrom}
       O -3.13628e+00  1.07289e+00  3.35482e-01
       H -2.93842e+00  1.42479e-01  5.02317e-01
       H -2.76041e+00  1.60737e+00  1.04826e+00
       H -3.90380e+00  1.29025e+00 -1.90184e-01
4
# CELL(abcABC): 1000.00000  1000.00000  1000.00000    90.00000    90.00000    90.00000  Step:          20  Bead:       0 positions{angstrom}  cell{angstrom}
       O -3.13572e+00  1.07347e+00  3.33782e-01
       H -2.94648e+00  1.46210e-01  5.07493e-01
       H -2.75835e+00  1.60622e+00  1.05109e+00
       H -3.90663e+00  1.27854e+00 -1.71198e-01
4
# CELL(abcABC): 1000.00000  1000.00000  1000.00000    90.00000    90.00000    90.00000  Step:          21  Bead:       0 positions{angstrom}  cell{angstrom}
       O -3.13518e+00  1.07398e+00  3.32276e-01
       H -2.95431e+00  1.49220e-01  5.11400e-01
       H -2.75504e+00  1.60599e+00  1.05439e+00
       H -3.91072e+00  1.26770e+00 -1.54504e-01
4
# CELL(abcABC): 1000.00000  1000.00000  1000.00000    90.00000    90.00000    90.00000  Step:          22  Bead:       0 positions{angstrom}  cell{angstrom}
       O -3.13462e+00  1.07437e+00  3.31046e-01
       H -2.96250e+00  1.50742e-01  5.16121e-01
       H -2.75004e+00  1.60616e+00  1.05516e+00
       H -3.91643e+00  1.25973e+00 -1.40479e-01
4
# CELL(abcABC): 1000.00000  1000.00000  1000.00000    90.00000    90.00000    90.00000  Step:          23  Bead:       0 positions{angstrom}  cell{angstrom}
       O -3.13400e+00  1.07473e+00  3.30225e-01
       H -2.96974e+00  1.51998e-01  5.20125e-01
       H -2.74458e+00  1.60681e+00  1.05505e+00
       H -3.92449e+00  1.25206e+00 -1.31333e-01
4
# CELL(abcABC): 1000.00000  1000.00000  1000.00000    90.00000    90.00000    90.00000  Step:          24  Bead:       0 positions{angstrom}  cell{angstrom}
       O -3.13332e+00  1.07499e+00  3.29649e-01
       H -2.97554e+00  1.51332e-01  5.23890e-01
       H -2.73917e+00  1.60840e+00  1.05365e+00
       H -3.93487e+00  1.24710e+00 -1.24560e-01
4
# CELL(abcABC): 1000.00000  1000.00000  1000.00000    90.00000    90.00000    90.00000  Step:          25  Bead:       0 positions{angstrom}  cell{angstrom}
       O -3.13253e+00  1.07532e+00  3.29220e-01
       H -2.98051e+00  1.48880e-01  5.28286e-01
       H -2.73456e+00  1.60908e+00  1.05073e+00
       H -3.94700e+00  1.24364e+00 -1.19208e-01
4
# CELL(abcABC): 1000.00000  1000.00000  1000.00000    90.00000    90.00000    90.00000  Step:          26  Bead:       0 positions{angstrom}  cell{angstrom}
       O -3.13170e+00  1.07570e+00  3.28981e-01
       H -2.98461e+00  1.45360e-01  5.31747e-01
       H -2.73003e+00  1.60918e+00  1.04592e+00
       H -3.96075e+00  1.24100e+00 -1.14084e-01
4
# CELL(abcABC): 1000.00000  1000.00000  1000.00000    90.00000    90.00000    90.00000  Step:          27  Bead:       0 positions{angstrom}  cell{angstrom}
       O -3.13096e+00  1.07600e+00  3.28956e-01
       H -2.98802e+00  1.42892e-01  5.34230e-01
       H -2.72573e+00  1.60825e+00  1.03930e+00
       H -3.97334e+00  1.23959e+00 -1.09536e-01
4
# CELL(abcABC): 1000.00000  1000.00000  1000.00000    90.00000    90.00000    90.00000  Step:          28  Bead:       0 positions{angstrom}  cell{angstrom}
       O -3.13022e+00  1.07621e+00  3.29016e-01
       H -2.99161e+00  1.39343e-01  5.36184e-01
       H -2.72089e+00  1.60750e+00  1.03180e+00
       H -3.98634e+00  1.24060e+00 -1.04948e-01
4
# CELL(abcABC): 1000.00000  1000.00000  1000.00000    90.00000    90.00000    90.00000  Step:          29  Bead:       0 positions{angstrom}  cell{angstrom}
       O -3.12961e+00  1.07624e+00  3.29199e-01
       H -2.99362e+00  1.36988e-01  5.36259e-01
       H -2.71681e+00  1.60700e+00  1.02358e+00
       H -3.99807e+00  1.24304e+00 -9.97148e-02
4
# CELL(abcABC): 1000.00000  1000.00000  1000.00000    90.00000    90.00000    90.00000  Step:          30  Bead:       0 positions{angstrom}  cell{angstrom}
       O -3.12916e+00  1.07597e+00  3.29413e-01
       H -2.99432e+00  1.36757e-01  5.36592e-01
       H -2.71254e+00  1.60709e+00  1.01551e+00
       H -4.00876e+00  1.24739e+00 -9.53665e-02
4
# CELL(abcABC): 1000.00000  1000.00000  1000.00000    90.00000    90.00000    90.00000  Step:          31  Bead:       0 positions{angstrom}  cell{angstrom}
       O -3.12905e+00  1.07539e+00  3.29713e-01
       H -2.99250e+00  1.37790e-01  5.36636e-01
       H -2.70703e+00  1.60921e+00  1.00693e+00
       H -4.01785e+00  1.25346e+00 -9.15944e-02
4
# CELL(abcABC): 1000.00000  1000.00000  1000.00000    90.00000    90.00000    90.00000  Step:          32  Bead:       0 positions{angstrom}  cell{angstrom}
       O -3.12915e+00  1.07471e+00  3.29836e-01
       H -2.99059e+00  1.37859e-01  5.36870e-01
       H -2.70023e+00  1.61368e+00  9.99893e-01
       H -4.02491e+00  1.25977e+00 -8.67432e-02
4
# CELL(abcABC): 1000.00000  1000.00000  1000.00000    90.00000    90.00000    90.00000  Step:          33  Bead:       0 positions{angstrom}  cell{angstrom}
       O -3.12949e+00  1.07398e+00  3.29850e-01
       H -2.98827e+00  1.38000e-01  5.37941e-01
       H -2.69236e+00  1.61816e+00  9.93618e-01
       H -4.02972e+00  1.26664e+00 -8.17621e-02
4
# CELL(abcABC): 1000.00000  1000.00000  1000.00000    90.00000    90.00000    90.00000  Step:          34  Bead:       0 positions{angstrom}  cell{angstrom}
       O -3.12994e+00  1.07317e+00  3.29975e-01
       H -2.98459e+00  1.38575e-01  5.38439e-01
       H -2.68576e+00  1.62290e+00  9.87754e-01
       H -4.03286e+00  1.27429e+00 -7.83806e-02
4
# CELL(abcABC): 1000.00000  1000.00000  1000.00000    90.00000    90.00000    90.00000  Step:          35  Bead:       0 positions{angstrom}  cell{angstrom}
       O -3.13066e+00  1.07222e+00  3.30134e-01
       H -2.97833e+00  1.39502e-01  5.37741e-01
       H -2.67998e+00  1.62912e+00  9.82444e-01
       H -4.03346e+00  1.28212e+00 -7.49001e-02
4
# CELL(abcABC): 1000.00000  1000.00000  1000.00000    90.00000    90.00000    90.00000  Step:          36  Bead:       0 positions{angstrom}  cell{angstrom}
       O -3.13164e+00  1.07114e+00  3.30370e-01
       H -2.97099e+00  1.40683e-01  5.36029e-01
       H -2.67388e+00  1.63686e+00  9.75883e-01
       H -4.03144e+00  1.29031e+00 -7.03690e-02
4
# CELL(abcABC): 1000.00000  1000.00000  1000.00000    90.00000    90.00000    90.00000  Step:          37  Bead:       0 positions{angstrom}  cell{angstrom}
       O -3.13287e+00  1.07011e+00  3.30576e-01
       H -2.96219e+00  1.42717e-01  5.35577e-01
       H -2.66729e+00  1.64389e+00  9.68086e-01
       H -4.02723e+00  1.29760e+00 -6.53936e-02
4
# CELL(abcABC): 1000.00000  1000.00000  1000.00000    90.00000    90.00000    90.00000  Step:          38  Bead:       0 positions{angstrom}  cell{angstrom}
       O -3.13413e+00  1.06911e+00  3.31047e-01
       H -2.95361e+00  1.44352e-01  5.33443e-01
       H -2.66075e+00  1.64936e+00  9.58993e-01
       H -4.02242e+00  1.30635e+00 -6.16419e-02
4
# CELL(abcABC): 1000.00000  1000.00000  1000.00000    90.00000    90.00000    90.00000  Step:          39  Bead:       0 positions{angstrom}  cell{angstrom}
       O -3.13571e+00  1.06830e+00  3.31521e-01
       H -2.94356e+00  1.45016e-01  5.31347e-01
       H -2.65389e+00  1.65301e+00  9.49691e-01
       H -4.01424e+00  1.31490e+00 -5.77672e-02
4
# CELL(abcABC): 1000.00000  1000.00000  1000.00000    90.00000    90.00000    90.00000  Step:          40  Bead:       0 positions{angstrom}  cell{angstrom}
       O -3.13746e+00  1.06753e+00  3.31922e-01
       H -2.93283e+00  1.45442e-01  5.29715e-01
       H -2.64684e+00  1.65601e+00  9.40913e-01
       H -4.00413e+00  1.32384e+00 -5.37264e-02
4
# CELL(abcABC): 1000.00000  1000.00000  1000.00000    90.00000    90.00000    90.00000  Step:          41  Bead:       0 positions{angstrom}  cell{angstrom}
       O -3.13931e+00  1.06679e+00  3.32391e-01
       H -2.92189e+00  1.46295e-01  5.27111e-01
       H -2.63927e+00  1.65849e+00  9.31346e-01
       H -3.99336e+00  1.33210e+00 -4.90007e-02
4
# CELL(abcABC): 1000.00000  1000.00000  1000.00000    90.00000    90.00000    90.00000  Step:          42  Bead:       0 positions{angstrom}  cell{angstrom}
       O -3.14131e+00  1.06627e+00  3.33045e-01
       H -2.90911e+00  1.45022e-01  5.23586e-01
       H -2.63157e+00  1.66006e+00  9.21066e-01
       H -3.98210e+00  1.34009e+00 -4.55662e-02
4
# CELL(abcABC): 1000.00000  1000.00000  1000.00000    90.00000    90.00000    90.00000  Step:          43  Bead:       0 positions{angstrom}  cell{angstrom}
       O -3.14329e+00  1.06575e+00  3.33862e-01
       H -2.89641e+00  1.44621e-01  5.18992e-01
       H -2.62386e+00  1.66200e+00  9.10026e-01
       H -3.97112e+00  1.34693e+00 -4.29016e-02
4
# CELL(abcABC): 1000.00000  1000.00000  1000.00000    90.00000    90.00000    90.00000  Step:          44  Bead:       0 positions{angstrom}  cell{angstrom}
       O -3.14518e+00  1.06529e+00  3.34846e-01
       H -2.88347e+00  1.43835e-01  5.12975e-01
       H -2.61624e+00  1.66261e+00  8.97602e-01
       H -3.96168e+00  1.35431e+00 -4.00875e-02
4
# CELL(abcABC): 1000.00000  1000.00000  1000.00000    90.00000    90.00000    90.00000  Step:          45  Bead:       0 positions{angstrom}  cell{angstrom}
       O -3.14686e+00  1.06487e+00  3.36067e-01
       H -2.87125e+00  1.43746e-01  5.05413e-01
       H -2.60801e+00  1.66181e+00  8.83635e-01
       H -3.95535e+00  1.36185e+00 -3.79314e-02
4
# CELL(abcABC): 1000.00000  1000.00000  1000.00000    90.00000    90.00000    90.00000  Step:          46  Bead:       0 positions{angstrom}  cell{angstrom}
       O -3.14846e+00  1.06446e+00  3.37492e-01
       H -2.85941e+00  1.45019e-01  4.96485e-01
       H -2.59981e+00  1.65960e+00  8.68707e-01
       H -3.95000e+00  1.36935e+00 -3.67026e-02
4
# CELL(abcABC): 1000.00000  1000.00000  1000.00000    90.00000    90.00000    90.00000  Step:          47  Bead:       0 positions{angstrom}  cell{angstrom}
       O -3.14990e+00  1.06389e+00  3.39201e-01
       H -2.84790e+00  1.46787e-01  4.86861e-01
       H -2.59112e+00  1.65741e+00  8.52735e-01
       H -3.94733e+00  1.37883e+00 -3.82246e-02
4
# CELL(abcABC): 1000.00000  1000.00000  1000.00000    90.00000    90.00000    90.00000  Step:          48  Bead:       0 positions{angstrom}  cell{angstrom}
       O -3.15120e+00  1.06334e+00  3.41034e-01
       H -2.83633e+00  1.48211e-01  4.76597e-01
       H -2.58182e+00  1.65598e+00  8.36148e-01
       H -3.94757e+00  1.38756e+00 -4.04707e-02
4
# CELL(abcABC): 1000.00000  1000.00000  1000.00000    90.00000    90.00000    90.00000  Step:          49  Bead:       0 positions{angstrom}  cell{angstrom}
       O -3.15245e+00  1.06271e+00  3.42860e-01
       H -2.82519e+00  1.49812e-01  4.65988e-01
       H -2.57045e+00  1.65475e+00  8.20052e-01
       H -3.95038e+00  1.39717e+00 -4.27581e-02
4
# CELL(abcABC): 1000.00000  1000.00000  1000.00000    90.00000    90.00000    90.00000  Step:          50  Bead:       0 positions{angstrom}  cell{angstrom}
       O -3.15343e+00  1.06207e+00  3.44869e-01
       H -2.81498e+00  1.52116e-01  4.54188e-01
       H -2.55986e+00  1.65344e+00  8.04519e-01
       H -3.95550e+00  1.40629e+00 -4.73057e-02
4
# CELL(abcABC): 1000.00000  1000.00000  1000.00000    90.00000    90.00000    90.00000  Step:          51  Bead:       0 positions{angstrom}  cell{angstrom}
       O -3.15437e+00  1.06136e+00  3.46945e-01
       H -2.80585e+00  1.54448e-01  4.41087e-01
       H -2.54859e+00  1.65327e+00  7.89418e-01
       H -3.96098e+00  1.41540e+00 -5.20697e-02
4
# CELL(abcABC): 1000.00000  1000.00000  1000.00000    90.00000    90.00000    90.00000  Step:          52  Bead:       0 positions{angstrom}  cell{angstrom}
       O -3.15525e+00  1.06071e+00  3.49166e-01
       H -2.79790e+00  1.56839e-01  4.27194e-01
       H -2.53668e+00  1.65338e+00  7.73747e-01
       H -3.96683e+00  1.42326e+00 -5.77574e-02
4
# CELL(abcABC): 1000.00000  1000.00000  1000.00000    90.00000    90.00000    90.00000  Step:          53  Bead:       0 positions{angstrom}  cell{angstrom}
       O -3.15614e+00  1.06002e+00  3.51366e-01
       H -2.79023e+00  1.59868e-01  4.11667e-01
       H -2.52430e+00  1.65575e+00  7.59243e-01
       H -3.97288e+00  1.42877e+00 -6.26418e-02
4
# CELL(abcABC): 1000.00000  1000.00000  1000.00000    90.00000    90.00000    90.00000  Step:          54  Bead:       0 positions{angstrom}  cell{angstrom}
       O -3.15698e+00  1.05946e+00  3.53296e-01
       H -2.78348e+00  1.61931e-01  3.96620e-01
       H -2.51191e+00  1.65943e+00  7.45914e-01
       H -3.97861e+00  1.43192e+00 -6.49054e-02
4
# CELL(abcABC): 1000.00000  1000.00000  1000.00000    90.00000    90.00000    90.00000  Step:          55  Bead:       0 positions{angstrom}  cell{angstrom}
       O -3.15784e+00  1.05900e+00  3.55170e-01
       H -2.77817e+00  1.63996e-01  3.81880e-01
       H -2.49946e+00  1.66342e+00  7.33470e-01
       H -3.98267e+00  1.43316e+00 -6.74689e-02
4
# CELL(abcABC): 1000.00000  1000.00000  1000.00000    90.00000    90.00000    90.00000  Step:          56  Bead:       0 positions{angstrom}  cell{angstrom}
       O -3.15874e+00  1.05863e+00  3.57014e-01
       H -2.77150e+00  1.66124e-01  3.67401e-01
       H -2.48776e+00  1.66687e+00  7.19933e-01
       H -3.98688e+00  1.43344e+00 -6.87138e-02
4
# CELL(abcABC): 1000.00000  1000.00000  1000.00000    90.00000    90.00000    90.00000  Step:          57  Bead:       0 positions{angstrom}  cell{angstrom}
       O -3.15957e+00  1.05837e+00  3.58774e-01
       H -2.76403e+00  1.68665e-01  3.53211e-01
       H -2.47817e+00  1.66922e+00  7.07251e-01
       H -3.99077e+00  1.43270e+00 -6.97781e-02
4
# CELL(abcABC): 1000.00000  1000.00000  1000.00000    90.00000    90.00000    90.00000  Step:          58  Bead:       0 positions{angstrom}  cell{angstrom}
       O -3.16041e+00  1.05832e+00  3.60497e-01
       H -2.75621e+00  1.70352e-01  3.38726e-01
       H -2.46952e+00  1.67065e+00  6.95045e-01
       H -3.99383e+00  1.43046e+00 -7.04430e-02
4
# CELL(abcABC): 1000.00000  1000.00000  1000.00000    90.00000    90.00000    90.00000  Step:          59  Bead:       0 positions{angstrom}  cell{angstrom}
       O -3.16124e+00  1.05837e+00  3.62062e-01
       H -2.74829e+00  1.72262e-01  3.24290e-01
       H -2.46206e+00  1.67151e+00  6.84318e-01
       H -3.99599e+00  1.42678e+00 -7.01193e-02
4
# CELL(abcABC): 1000.00000  1000.00000  1000.00000    90.00000    90.00000    90.00000  Step:          60  Bead:       0 positions{angstrom}  cell{angstrom}
       O -3.16204e+00  1.05863e+00  3.63627e-01
       H -2.74230e+00  1.74159e-01  3.09970e-01
       H -2.45545e+00  1.67057e+00  6.71954e-01
       H -3.99595e+00  1.42177e+00 -6.82858e-02
4
# CELL(abcABC): 1000.00000  1000.00000  1000.00000    90.00000    90.00000    90.00000  Step:          61  Bead:       0 positions{angstrom}  cell{angstrom}
       O -3.16285e+00  1.05906e+00  3.65170e-01
       H -2.73648e+00  1.76098e-01  2.95506e-01
       H -2.44919e+00  1.66824e+00  6.58328e-01
       H -3.99519e+00  1.41538e+00 -6.46839e-02
4
# CELL(abcABC): 1000.00000  1000.00000  1000.00000    90.00000    90.00000    90.00000  Step:          62  Bead:       0 positions{angstrom}  cell{angstrom}
       O -3.16349e+00  1.05967e+00  3.66788e-01
       H -2.73266e+00  1.78022e-01  2.80781e-01
       H -2.44566e+00  1.66437e+00  6.44323e-01
       H -3.99241e+00  1.40757e+00 -6.16357e-02
4
# CELL(abcABC): 1000.00000  1000.00000  1000.00000    90.00000    90.00000    90.00000  Step:          63  Bead:       0 positions{angstrom}  cell{angstrom}
       O -3.16396e+00  1.06023e+00  3.68184e-01
       H -2.72992e+00  1.81972e-01  2.66801e-01
       H -2.44377e+00  1.65904e+00  6.30461e-01
       H -3.98957e+00  1.40001e+00 -5.59466e-02
4
# CELL(abcABC): 1000.00000  1000.00000  1000.00000    90.00000    90.00000    90.00000  Step:          64  Bead:       0 positions{angstrom}  cell{angstrom}
       O -3.16435e+00  1.06080e+00  3.69456e-01
       H -2.72746e+00  1.87313e-01  2.54147e-01
       H -2.44244e+00  1.65326e+00  6.17183e-01
       H -3.98714e+00  1.39149e+00 -5.02179e-02
4
# CELL(abcABC): 1000.00000  1000.00000  1000.00000    90.00000    90.00000    90.00000  Step:          65  Bead:       0 positions{angstrom}  cell{angstrom}
       O -3.16464e+00  1.06126e+00  3.70658e-01
       H -2.72733e+00  1.94302e-01  2.40777e-01
       H -2.44086e+00  1.64912e+00  6.04550e-01
       H -3.98425e+00  1.38127e+00 -4.32823e-02
4
# CELL(abcABC): 1000.00000  1000.00000  1000.00000    90.00000    90.00000    90.00000  Step:          66  Bead:       0 positions{angstrom}  cell{angstrom}
       O -3.16484e+00  1.06156e+00  3.71668e-01
       H -2.72881e+00  2.04625e-01  2.28454e-01
       H -2.43914e+00  1.64442e+00  5.93225e-01
       H -3.98127e+00  1.37099e+00 -3.56788e-02
4
# CELL(abcABC): 1000.00000  1000.00000  1000.00000    90.00000    90.00000    90.00000  Step:          67  Bead:       0 positions{angstrom}  cell{angstrom}
       O -3.16488e+00  1.06185e+00  3.72581e-01
       H -2.73131e+00  2.14184e-01  2.15584e-01
       H -2.43653e+00  1.64128e+00  5.83590e-01
       H -3.98075e+00  1.35987e+00 -2.76538e-02
4
# CELL(abcABC): 1000.00000  1000.00000  1000.00000    90.00000    90.00000    90.00000  Step:          68  Bead:       0 positions{angstrom}  cell{angstrom}
       O -3.16486e+00  1.06205e+00  3.73553e-01
       H -2.73416e+00  2.22811e-01  2.02553e-01
       H -2.43298e+00  1.64003e+00  5.73627e-01
       H -3.98181e+00  1.34941e+00 -2.00967e-02
4
# CELL(abcABC): 1000.00000  1000.00000  1000.00000    90.00000    90.00000    90.00000  Step:          69  Bead:       0 positions{angstrom}  cell{angstrom}
       O -3.16468e+00  1.06232e+00  3.74274e-01
       H -2.73807e+00  2.28463e-01  1.91154e-01
       H -2.42948e+00  1.64089e+00  5.65834e-01
       H -3.98425e+00  1.33851e+00 -1.23430e-02
4
# CELL(abcABC): 1000.00000  1000.00000  1000.00000    90.00000    90.00000    90.00000  Step:          70  Bead:       0 positions{angstrom}  cell{angstrom}
       O -3.16455e+00  1.06246e+00  3.74938e-01
       H -2.74202e+00  2.32670e-01  1.78748e-01
       H -2.42528e+00  1.64455e+00  5.58977e-01
       H -3.98651e+00  1.32854e+00 -3.62087e-03
4
# CELL(abcABC): 1000.00000  1000.00000  1000.00000    90.00000    90.00000    90.00000  Step:          71  Bead:       0 positions{angstrom}  cell{angstrom}
       O -3.16425e+00  1.06268e+00  3.75624e-01
       H -2.74688e+00  2.33350e-01  1.64816e-01
       H -2.42139e+00  1.64948e+00  5.52773e-01
       H -3.99032e+00  1.31931e+00  5.61761e-03
4
# CELL(abcABC): 1000.00000  1000.00000  1000.00000    90.00000    90.00000    90.00000  Step:          72  Bead:       0 positions{angstrom}  cell{angstrom}
       O -3.16384e+00  1.06284e+00  3.76220e-01
       H -2.75156e+00  2.31907e-01  1.51076e-01
       H -2.41757e+00  1.65601e+00  5.48296e-01
       H -3.99604e+00  1.31179e+00  1.43759e-02
4
# CELL(abcABC): 1000.00000  1000.00000  1000.00000    90.00000    90.00000    90.00000  Step:          73  Bead:       0 positions{angstrom}  cell{angstrom}
       O -3.16320e+00  1.06305e+00  3.76841e-01
       H -2.75655e+00  2.28233e-01  1.37229e-01
       H -2.41454e+00  1.66386e+00  5.44699e-01
       H -4.00419e+00  1.30424e+00  2.19604e-02
4
# CELL(abcABC): 1000.00000  1000.00000  1000.00000    90.00000    90.00000    90.00000  Step:          74  Bead:       0 positions{angstrom}  cell{angstrom}
       O -3.16239e+00  1.06322e+00  3.77565e-01
       H -2.76148e+00  2.23143e-01  1.22337e-01
       H -2.41280e+00  1.67218e+00  5.40659e-01
       H -4.01384e+00  1.29825e+00  2.94056e-02
4
# CELL(abcABC): 1000.00000  1000.00000  1000.00000    90.00000    90.00000    90.00000  Step:          75  Bead:       0 positions{angstrom}  cell{angstrom}
       O -3.16121e+00  1.06344e+00  3.78214e-01
       H -2.76729e+00  2.16340e-01  1.07432e-01
       H -2.41330e+00  1.67984e+00  5.37986e-01
       H -4.02631e+00  1.29400e+00  3.66793e-02
4
# CELL(abcABC): 1000.00000  1000.00000  1000.00000    90.00000    90.00000    90.00000  Step:          76  Bead:       0 positions{angstrom}  cell{angstrom}
       O -3.15990e+00  1.06350e+00  3.78631e-01
       H -2.77278e+00  2.09958e-01  9.44988e-02
       H -2.41578e+00  1.68713e+00  5.35947e-01
       H -4.03908e+00  1.29215e+00  4.50276e-02
4
# CELL(abcABC): 1000.00000  1000.00000  1000.00000    90.00000    90.00000    90.00000  Step:          77  Bead:       0 positions{angstrom}  cell{angstrom}
       O -3.15833e+00  1.06347e+00  3.78870e-01
       H -2.77893e+00  2.05448e-01  8.27912e-02
       H -2.42055e+00  1.69403e+00  5.35017e-01
       H -4.05304e+00  1.29022e+00  5.38714e-02
4
# CELL(abcABC): 1000.00000  1000.00000  1000.00000    90.00000    90.00000    90.00000  Step:          78  Bead:       0 positions{angstrom}  cell{angstrom}
       O -3.15658e+00  1.06338e+00  3.79104e-01
       H -2.78681e+00  2.01776e-01  7.15970e-02
       H -2.42610e+00  1.70071e+00  5.34309e-01
       H -4.06746e+00  1.28864e+00  6.20604e-02
4
# CELL(abcABC): 1000.00000  1000.00000  1000.00000    90.00000    90.00000    90.00000  Step:          79  Bead:       0 positions{angstrom}  cell{angstrom}
       O -3.15482e+00  1.06331e+00  3.79117e-01
       H -2.79577e+00  2.00544e-01  6.32911e-02
       H -2.43162e+00  1.70558e+00  5.33834e-01
       H -4.08091e+00  1.28613e+00  7.06435e-02
4
# CELL(abcABC): 1000.00000  1000.00000  1000.00000    90.00000    90.00000    90.00000  Step:          80  Bead:       0 positions{angstrom}  cell{angstrom}
       O -3.15316e+00  1.06318e+00  3.78821e-01
       H -2.80455e+00  2.01599e-01  5.66635e-02
       H -2.43751e+00  1.70920e+00  5.34825e-01
       H -4.09256e+00  1.28342e+00  8.09727e-02
4
# CELL(abcABC): 1000.00000  1000.00000  1000.00000    90.00000    90.00000    90.00000  Step:          81  Bead:       0 positions{angstrom}  cell{angstrom}
       O -3.15165e+00  1.06286e+00  3.78385e-01
       H -2.81112e+00  2.05390e-01  5.10256e-02
       H -2.44430e+00  1.71378e+00  5.36424e-01
       H -4.10321e+00  1.28013e+00  9.19349e-02
4
# CELL(abcABC): 1000.00000  1000.00000  1000.00000    90.00000    90.00000    90.00000  Step:          82  Bead:       0 positions{angstrom}  cell{angstrom}
       O -3.15028e+00  1.06264e+00  3.77658e-01
       H -2.81653e+00  2.10107e-01  4.75992e-02
       H -2.45070e+00  1.71637e+00  5.38364e-01
       H -4.11311e+00  1.27635e+00  1.04968e-01
4
# CELL(abcABC): 1000.00000  1000.00000  1000.00000    90.00000    90.00000    90.00000  Step:          83  Bead:       0 positions{angstrom}  cell{angstrom}
       O -3.14916e+00  1.06234e+00  3.76748e-01
       H -2.82103e+00  2.16246e-01  4.58171e-02
       H -2.45668e+00  1.71876e+00  5.40716e-01
       H -4.12043e+00  1.27264e+00  1.18837e-01
4
# CELL(abcABC): 1000.00000  1000.00000  1000.00000    90.00000    90.00000    90.00000  Step:          84  Bead:       0 positions{angstrom}  cell{angstrom}
       O -3.14828e+00  1.06206e+00  3.75711e-01
       H -2.82322e+00  2.21929e-01  4.39014e-02
       H -2.46298e+00  1.72092e+00  5.43337e-01
       H -4.12594e+00  1.26928e+00  1.34596e-01
4
# CELL(abcABC): 1000.00000  1000.00000  1000.00000    90.00000    90.00000    90.00000  Step:          85  Bead:       0 positions{angstrom}  cell{angstrom}