11135
# CELL(abcABC):   47.46614    47.46614    47.46614    90.00000    90.00000    90.00000  Step:        2550  Bead:       0 positions{angstrom}  cell{angstrom}
       C -8.21183e+00 -2.98878e+00  3.52038e+00
       H -8.38132e+00 -3.61082e+00  4.36191e+00
       H -8.26257e+00 -3.58624e+00  2.55549e+00
       H -9.09541e+00 -2.26829e+00  3.45264e+00
       C -6.85130e+00 -2.40266e+00  3.52818e+00
       O -5.97666e+00 -2.87847e+00  4.26597e+00
       N -6.69057e+00 -1.38404e+00  2.75660e+00
       H -7.44862e+00 -1.00662e+00  2.18879e+00
       C -5.37124e+00 -8.90621e-01  2.48312e+00
       H -4.76602e+00 -1.60368e+00  1.88535e+00
       C -5.55681e+00  2.66280e-01  1.59078e+00
       H -4.67046e+00  8.28369e-01  1.27447e+00
       H -6.21450e+00  1.04613e+00  2.03610e+00
       C -6.20511e+00 -8.35791e-02  2.16665e-01
       H -7.23060e+00 -4.04503e-01  4.24236e-01
       H -5.62468e+00 -8.78188e-01 -2.02022e-01
       C -6.34022e+00  1.14952e+00 -6.41678e-01
       H -5.33054e+00  1.48167e+00 -9.56004e-01
       H -6.74688e+00  1.99388e+00 -9.27545e-03
       C -7.28784e+00  9.44511e-01 -1.81861e+00
       H -7.19212e+00  1.79103e+00 -2.50134e+00
       H -8.31682e+00  9.55786e-01 -1.43387e+00
       N -7.14508e+00 -2.88764e-01 -2.57677e+00
       H -6.09449e+00 -5.07392e-01 -2.72180e+00
       H -7.65085e+00 -1.57342e-01 -3.48121e+00
       H -7.45809e+00 -1.14286e+00 -2.11317e+00
       C -4.36520e+00 -5.20415e-01  3.62013e+00
       O -4.55893e+00  4.16204e-01  4.40823e+00
       N -3.20700e+00 -1.15510e+00  3.61751e+00
       H -3.00902e+00 -1.86405e+00  2.91953e+00
       H -2.62263e+00 -9.25342e-01  4.35286e+00
       O -1.21577e+01 -5.74462e+00 -2.75236e+01
       H -1.12425e+01 -5.65389e+00 -2.78073e+01
       H -1.27058e+01 -5.91056e+00 -2.83499e+01
       O -1.85024e+01 -3.69055e+00 -8.88876e+00
       H -1.80467e+01 -3.57401e+00 -8.05506e+00
       H -1.94452e+01 -3.55662e+00 -8.63556e+00
       O  1.44267e+01 -1.33627e+01 -5.80038e+00
       H  1.52640e+01 -1.28611e+01 -5.94422e+00
       H  1.38015e+01 -1.29707e+01 -6.43402e+00
       O -1.61474e+01 -1.28851e+01 -2.30179e+01
       H -1.66727e+01 -1.30423e+01 -2.38584e+01
       H -1.65680e+01 -1.20736e+01 -2.27896e+01
       O -1.09938e+01 -8.02857e+00 -1.56439e+01
       H -1.11416e+01 -7.30532e+00 -1.62397e+01
       H -1.12421e+01 -7.52846e+00 -1.47545e+01
       O  2.25159e+01 -2.26618e+01  1.95425e+01
       H  2.34759e+01 -2.27787e+01  1.93564e+01
       H  2.24491e+01 -2.33197e+01  2.02871e+01
       O -1.54272e+01 -8.58084e+00 -6.31215e+00
       H -1.46429e+01 -9.01150e+00 -6.05120e+00
       H -1.56318e+01 -8.97505e+00 -7.13319e+00
       O  2.10571e+01 -2.36514e+01 -1.67726e+01
       H  2.02366e+01 -2.32486e+01 -1.63863e+01
       H  2.05948e+01 -2.44878e+01 -1.70795e+01
       O -1.29648e+01 -1.95577e+01 -1.47849e+00
       H -1.34963e+01 -2.03355e+01 -1.59662e+00
       H -1.22475e+01 -1.98053e+01 -8.48643e-01
       O  1.22483e+01 -2.16950e+01 -1.08971e+01
       H  1.19856e+01 -2.11143e+01 -1.01761e+01
       H  1.20619e+01 -2.11176e+01 -1.16923e+01
       O -2.85862e+01 -1.26966e+01 -2.70986e+00
       H -2.80897e+01 -1.34846e+01 -2.62176e+00
       H -2.91942e+01 -1.31345e+01 -3.35782e+00
       O  2.50348e+00 -2.77861e+01 -3.75013e+00
       H  3.00844e+00 -2.70964e+01 -4.12851e+00
       H  2.76548e+00 -2.85083e+01 -4.34796e+00
       O  6.17634e+00  1.69451e+01 -9.58156e+00
       H  5.49976e+00  1.64716e+01 -9.08229e+00
       H  6.91903e+00  1.64413e+01 -9.20186e+00
       O -3.16098e+01 -9.91221e+00 -6.84258e+00
       H -3.08824e+01 -1.05909e+01 -6.96489e+00
       H -3.21879e+01 -1.01379e+01 -7.59887e+00
       O -6.72733e+00 -1.63212e+01 -2.33265e+01
       H -6.68405e+00 -1.58970e+01 -2.42534e+01
       H -6.29333e+00 -1.57838e+01 -2.27292e+01
       O -4.32632e+00 -1.12303e+01 -1.11100e+01
       H -3.47705e+00 -1.07245e+01 -1.12601e+01
       H -4.15614e+00 -1.17056e+01 -1.19193e+01
       O -1.12752e+01 -1.96374e+01 -3.82927e+00
       H -1.17813e+01 -2.02707e+01 -4.34914e+00
       H -1.19657e+01 -1.93053e+01 -3.25744e+00
       O  4.97447e-01 -1.69327e+01 -2.28521e+01
       H  1.32716e+00 -1.73006e+01 -2.31191e+01
       H  7.80248e-01 -1.59812e+01 -2.25641e+01
       O -5.37076e+00 -1.68379e+01 -1.07277e+01
       H -4.86431e+00 -1.63364e+01 -1.13941e+01
       H -5.91642e+00 -1.73467e+01 -1.13218e+01
       O -4.26861e+00  1.70125e+01 -3.85199e+00
       H -4.72196e+00  1.69400e+01 -2.95724e+00
       H -4.59301e+00  1.62155e+01 -4.25205e+00
       O -2.55968e+01 -5.44624e+00 -9.06796e+00
       H -2.56727e+01 -6.37304e+00 -9.30354e+00
       H -2.46846e+01 -5.40567e+00 -8.84289e+00
       O -2.65169e+01 -8.31164e+00 -1.14689e+01
       H -2.58479e+01 -7.52161e+00 -1.13852e+01
       H -2.73578e+01 -7.81802e+00 -1.14365e+01
       O  2.23717e+01 -1.65273e+01 -1.89822e+01
       H  2.27090e+01 -1.72549e+01 -1.84735e+01
       H  2.30187e+01 -1.65106e+01 -1.97730e+01
       O -1.63584e+01 -1.65351e+01 -1.41461e+01
       H -1.64863e+01 -1.65884e+01 -1.50907e+01
       H -1.71877e+01 -1.61446e+01 -1.38979e+01
       O -4.14849e+00 -2.07648e+01 -1.35317e+01
       H -4.38001e+00 -2.01565e+01 -1.42544e+01
       H -5.07056e+00 -2.09013e+01 -1.32457e+01
       O -1.58425e+01 -1.07575e+01  2.10004e+01
       H -1.67040e+01 -1.03997e+01  2.07413e+01
       H -1.59965e+01 -1.16396e+01  2.12452e+01
       O -7.34672e+00 -3.29785e+01 -2.07813e+01
       H -7.77709e+00 -3.24714e+01 -2.14649e+01
       H -6.52407e+00 -3.24163e+01 -2.07272e+01
       O -7.75662e+00 -4.37052e+00  1.76608e+01
       H -7.72692e+00 -4.32351e+00  1.66510e+01
       H -7.06659e+00 -4.97894e+00  1.78439e+01
       O -1.34149e+01 -6.90561e-01 -7.70493e-02
       H -1.39050e+01 -1.69711e-01  5.79380e-01
       H -1.36704e+01 -1.62172e+00  1.86886e-01
       O -2.50565e+01 -7.87019e+00  2.39267e+01
       H -2.55654e+01 -8.13257e+00  2.47242e+01
       H -2.57053e+01 -7.67717e+00  2.32009e+01
       O -2.02866e+01 -1.53748e+01 -1.72125e+01
       H -2.10748e+01 -1.51809e+01 -1.77336e+01
       H -2.05511e+01 -1.51905e+01 -1.63222e+01
       O  5.04074e+00 -1.17667e+01 -2.01067e+01
       H  5.73204e+00 -1.23912e+01 -1.98580e+01
       H  5.54483e+00 -1.14620e+01 -2.08556e+01
       O  2.60112e+00 -7.32366e+00 -2.93214e+01
       H  2.53958e+00 -8.17100e+00 -2.96881e+01
       H  2.03926e+00 -7.46282e+00 -2.84820e+01
       O -8.81921e+00 -2.23773e+01  4.52010e+00
       H -8.38164e+00 -2.14914e+01  4.50610e+00
       H -8.76865e+00 -2.25287e+01  5.52998e+00
       O -1.46847e+01 -1.39744e+01 -1.34896e+01
       H -1.39196e+01 -1.45333e+01 -1.31977e+01
       H -1.54096e+01 -1.46037e+01 -1.36797e+01
       O -2.53526e+01 -2.00647e+01  1.89669e+01
       H -2.59358e+01 -2.02033e+01  1.82509e+01
       H -2.52326e+01 -2.10317e+01  1.92037e+01
       O -1.51048e+01 -2.45378e+01 -3.97552e+00
       H -1.53270e+01 -2.37346e+01 -4.50018e+00
       H -1.52281e+01 -2.52031e+01 -4.60857e+00
       O  3.86679e-01 -3.31131e+00 -2.72494e+01
       H  4.76082e-01 -3.94230e+00 -2.79959e+01
       H  8.29143e-01 -3.79943e+00 -2.66018e+01
       O -1.16401e+01  2.09105e+00 -1.23872e+01
       H -1.08218e+01  2.39845e+00 -1.18668e+01
       H -1.12121e+01  2.01913e+00 -1.32349e+01
       O -6.84352e-01 -2.31103e+01 -1.76645e+01
       H  5.50169e-02 -2.33029e+01 -1.70782e+01
       H -1.24733e+00 -2.38139e+01 -1.74026e+01
       O  1.52343e+01 -1.90457e+01 -8.47618e+00
       H  1.50843e+01 -2.00254e+01 -8.33024e+00
       H  1.44729e+01 -1.88195e+01 -9.06685e+00
       O -1.35312e+01 -2.44903e+00 -3.42957e+01
       H -1.31380e+01 -3.30902e+00  1.30957e+01
       H -1.43975e+01 -2.60824e+00 -3.39079e+01
       O  1.48341e+01 -2.17618e+01 -1.25582e+01
       H  1.43564e+01 -2.25255e+01 -1.21500e+01
       H  1.41066e+01 -2.11869e+01 -1.28656e+01
       O -1.98302e+01 -1.03077e+01 -2.01273e+01
       H -2.07945e+01 -1.02994e+01 -2.00054e+01
       H -1.96440e+01 -1.11120e+01 -1.97475e+01
       O -2.55214e+01 -2.20110e+01 -1.26599e+01
       H -2.47388e+01 -2.24115e+01 -1.23570e+01
       H -2.62007e+01 -2.24793e+01 -1.22640e+01
       O -5.37041e+00 -1.34644e+01  1.03682e+01
       H -4.40882e+00 -1.36392e+01  1.03128e+01
       H -5.73717e+00 -1.40190e+01  1.10919e+01
       O -1.47644e+01 -2.19091e+01  1.90696e+00
       H -1.47011e+01 -2.28281e+01  2.32704e+00
       H -1.40941e+01 -2.14227e+01  2.39565e+00
       O  1.01819e+01 -9.80856e+00 -1.11000e+01
       H  9.60109e+00 -9.13133e+00 -1.07154e+01
       H  1.05768e+01 -1.02124e+01 -1.02871e+01
       O  6.92228e+00 -9.55771e+00 -1.24493e+01
       H  7.37108e+00 -1.03677e+01 -1.28009e+01
       H  7.01318e+00 -9.00765e+00 -1.32058e+01
       O -2.32830e+01  3.09032e+00 -1.34602e+01
       H -2.26746e+01  3.83523e+00 -1.31724e+01
       H -2.34891e+01  3.36407e+00 -1.43473e+01
       O -1.60878e+01 -6.33359e+00 -2.69946e+01
       H -1.55091e+01 -6.87941e+00 -2.64879e+01
       H -1.60837e+01 -6.83911e+00 -2.78444e+01
       O -1.70827e+01 -1.11583e+01 -1.69692e+01
       H -1.75445e+01 -1.13269e+01 -1.62037e+01
       H -1.62180e+01 -1.09087e+01 -1.66710e+01
       O -1.01874e+01 -1.09524e+01 -2.57871e+01
       H -9.93701e+00 -1.18096e+01 -2.53200e+01
       H -9.34094e+00 -1.05649e+01 -2.61348e+01
       O -9.53858e+00 -2.79729e+00 -9.44423e+00
       H -1.03207e+01 -2.96009e+00 -8.81062e+00
       H -8.74513e+00 -3.03101e+00 -8.91948e+00
       O  4.33576e+00 -8.06386e+00 -1.54209e+01
       H  5.25191e+00 -7.91210e+00 -1.57907e+01
       H  4.36294e+00 -7.35583e+00 -1.47184e+01
       O -1.81084e+01 -1.36948e+01  2.00605e+00
       H -1.77144e+01 -1.43050e+01  2.66081e+00
       H -1.90610e+01 -1.37962e+01  2.15500e+00
       O -1.41430e+01 -5.96165e+00 -5.07926e-01
       H -1.31628e+01 -6.09075e+00 -4.46802e-01
       H -1.44230e+01 -5.90383e+00  4.17209e-01
       O -6.36092e+00 -1.34083e+01 -2.07636e+01
       H -5.82406e+00 -1.41138e+01 -2.11130e+01
       H -5.97719e+00 -1.34263e+01 -1.98880e+01
       O -4.24854e+00 -1.69180e+01 -1.40045e+01
       H -3.90617e+00 -1.75818e+01 -1.45462e+01
       H -4.96940e+00 -1.74431e+01 -1.35565e+01
       O -2.68275e+00  2.36269e+01  7.19405e+00
       H -2.20987e+00  2.30737e+01  6.56712e+00
       H -3.38602e+00  2.38586e+01  6.45913e+00
       O -7.48684e+00 -3.48764e+00 -2.58232e+01
       H -7.44825e+00 -3.87250e+00 -2.49592e+01
       H -8.19886e+00 -4.01956e+00 -2.62383e+01
       O -6.76105e+00  2.70455e+01  4.08004e+00
       H -7.32394e+00  2.76445e+01  3.53915e+00
       H -6.83626e+00  2.73792e+01  5.03224e+00
       O -1.04172e+01 -1.70479e+01 -1.20379e+01
       H -1.04442e+01 -1.79406e+01 -1.24611e+01
       H -9.80659e+00 -1.65473e+01 -1.26460e+01
       O  2.51675e+00 -1.33969e+01 -1.29131e+00
       H  1.93361e+00 -1.36189e+01 -2.02721e+00
       H  2.61155e+00 -1.24103e+01 -1.30280e+00
       O -5.04154e+00 -9.95904e+00  7.15243e+00
       H -5.52258e+00 -1.05704e+01  7.78987e+00
       H -4.81909e+00 -1.04876e+01  6.41589e+00
       O -1.26717e+01 -3.26571e+00  1.70407e+01
       H -1.23236e+01 -3.70786e+00  1.62616e+01
       H -1.24256e+01 -2.32336e+00  1.69808e+01
       O -2.12162e+01 -1.10232e+01 -1.15015e+01
       H -2.11423e+01 -1.09288e+01 -1.05903e+01
       H -2.21982e+01 -1.11850e+01 -1.15798e+01
       O  2.54992e+00 -1.71840e+01 -9.27505e+00
       H  2.45369e+00 -1.78552e+01 -9.92550e+00
       H  2.87393e+00 -1.77338e+01 -8.54766e+00
       O -1.65452e+01 -2.18449e+01 -1.17803e+01
       H -1.69502e+01 -2.10829e+01 -1.12081e+01
       H -1.60229e+01 -2.13213e+01 -1.23909e+01
       O -2.95535e+01 -2.41911e+01  2.20801e+01
       H -2.88563e+01 -2.36876e+01  2.25160e+01
       H -2.98413e+01 -2.47838e+01  2.27519e+01
       O  2.03392e+01  2.41450e+01  2.32256e+01
       H  2.03534e+01  2.36412e+01  2.40490e+01
       H  2.12760e+01  2.42990e+01  2.30161e+01
       O -3.44966e+00 -1.50454e+01 -8.13821e+00
       H -4.31924e+00 -1.50792e+01 -8.42350e+00
       H -3.09413e+00 -1.58125e+01 -8.60100e+00
       O -1.20676e+01 -9.99351e+00 -1.30622e+01
       H -1.29357e+01 -9.73836e+00 -1.34372e+01
       H -1.16831e+01 -9.17975e+00 -1.32043e+01
       O -1.51269e+01 -3.95962e+00  7.61739e+00
       H -1.45542e+01 -4.31334e+00  6.86495e+00
       H -1.59165e+01 -3.74632e+00  7.09438e+00
       O -1.51067e+01 -1.95067e+01 -2.61828e+01
       H -1.57806e+01 -1.92259e+01 -2.55211e+01
       H -1.42784e+01 -1.92766e+01 -2.57443e+01
       O -1.87765e+01 -1.51304e+01 -2.43685e+01
       H -1.91376e+01 -1.45906e+01 -2.51011e+01
       H -1.81705e+01 -1.56883e+01 -2.48157e+01
       O -4.32582e+00 -1.19893e+01 -1.37795e+01
       H -4.06873e+00 -1.29221e+01 -1.38244e+01
       H -5.14534e+00 -1.19439e+01 -1.42584e+01
       O -1.49115e+01 -1.45266e+01 -1.70766e+01
       H -1.51259e+01 -1.47870e+01 -1.80339e+01
       H -1.58226e+01 -1.43968e+01 -1.67857e+01
       O -1.68637e+01 -1.92240e+01 -1.57015e+01
       H -1.64256e+01 -2.00717e+01 -1.58243e+01
       H -1.66618e+01 -1.87092e+01 -1.64459e+01
       O -1.39732e+01 -1.29281e+01 -7.05807e+00
       H -1.40642e+01 -1.30463e+01 -8.03070e+00
       H -1.31839e+01 -1.35268e+01 -6.94790e+00
       O -1.27909e+01 -1.55874e+01 -1.23476e+01
       H -1.19493e+01 -1.61922e+01 -1.22189e+01
       H -1.24010e+01 -1.47877e+01 -1.19202e+01
       O  1.91593e+01 -1.34427e+01 -1.11421e+01
       H  1.97754e+01 -1.38625e+01 -1.16720e+01
       H  1.96649e+01 -1.27153e+01 -1.07635e+01
       O -5.27941e+00 -2.56460e+01 -3.41656e+00
       H -5.36983e+00 -2.47433e+01 -3.75539e+00
       H -4.37382e+00 -2.59437e+01 -3.66523e+00
       O -2.11430e+01 -2.41155e+01  1.20302e+01
       H -2.12865e+01 -2.41438e+01  1.29775e+01
       H -2.19881e+01 -2.38362e+01  1.17205e+01
       O -9.56726e+00 -9.15749e+00 -4.28509e+00
       H -1.04239e+01 -8.84087e+00 -4.60254e+00
       H -9.48978e+00 -8.50719e+00 -3.58920e+00
       O -1.60107e+01  8.64295e-01 -1.86866e+01
       H -1.53269e+01  7.78676e-01 -1.79854e+01
       H -1.67797e+01  4.48721e-01 -1.82538e+01
       O  3.01266e+01 -1.76503e+01 -1.86599e+00
       H  2.98407e+01 -1.70367e+01 -1.11248e+00
       H  3.10778e+01 -1.78193e+01 -1.67288e+00
       O  1.22367e+01 -1.36141e+01 -2.35628e+01
       H  1.25767e+01 -1.28394e+01 -2.30313e+01
       H  1.23169e+01 -1.42852e+01 -2.28264e+01
       O  4.57192e+00 -2.25811e+01 -8.58968e-01
       H  5.22695e+00 -2.28884e+01 -1.85509e-01
       H  4.22126e+00 -2.17819e+01 -4.50923e-01
       O -2.35489e+01 -1.59298e+01 -2.13208e+01
       H -2.26710e+01 -1.55828e+01 -2.14723e+01
       H -2.39303e+01 -1.60510e+01 -2.22040e+01
       O -1.28180e+00 -1.24872e+01 -1.22434e+01
       H -1.46239e+00 -1.27414e+01 -1.12999e+01
       H -1.44555e+00 -1.33365e+01 -1.26772e+01
       O  2.87561e+00 -7.56097e+00 -9.85348e+00
       H  3.42746e+00 -8.37178e+00 -1.01012e+01
       H  3.56854e+00 -6.98527e+00 -9.44441e+00
       O -8.82376e+00 -6.53510e+00  9.07455e-02
       H -8.32447e+00 -6.01156e+00 -5.62476e-01
       H -8.03386e+00 -7.04135e+00  4.41229e-01
       O -1.40595e+01  1.21093e+01 -9.94558e+00
       H -1.33206e+01  1.14894e+01 -9.82556e+00
       H -1.36276e+01  1.29024e+01 -9.67376e+00
       O -4.78883e-01 -1.27516e+01 -2.42258e+01
       H -8.56122e-01 -1.20811e+01 -2.35582e+01
       H -8.53036e-01 -1.24067e+01 -2.50900e+01
       O -2.10266e+01 -1.21436e+01  2.36753e+01
       H -2.07483e+01 -1.29001e+01  2.32038e+01
       H -2.12042e+01 -1.15128e+01  2.29297e+01
       O  2.07180e+01 -1.48550e+01  3.46517e+01
       H  2.10495e+01 -1.57727e+01  3.46396e+01
       H  2.15611e+01 -1.44302e+01  3.46249e+01
       O -1.08683e+01 -1.09156e+01 -1.61266e+01
       H -1.07682e+01 -9.97683e+00 -1.59039e+01
       H -1.08901e+01 -1.13716e+01 -1.52548e+01
       O -1.73244e+01 -1.28925e+01 -1.90017e+01
       H -1.72175e+01 -1.23118e+01 -1.81786e+01
       H -1.82908e+01 -1.30141e+01 -1.90252e+01
       O -2.38793e+01 -8.56569e+00  2.67086e+01
       H -2.30905e+01 -8.25632e+00  2.71953e+01
       H -2.46025e+01 -8.12071e+00  2.71532e+01
       O -9.82918e+00 -1.33792e+01 -2.46117e+01
       H -9.46427e+00 -1.32890e+01 -2.36858e+01
       H -1.07219e+01 -1.30479e+01 -2.44435e+01
       O -8.81836e+00 -1.34359e+01 -2.19435e+01
       H -9.33082e+00 -1.29088e+01 -2.13620e+01
       H -7.92504e+00 -1.33609e+01 -2.15395e+01
       O -6.75574e+00  1.78007e+01 -1.03254e+01
       H -6.95320e+00  1.78951e+01 -1.12373e+01
       H -7.15553e+00  1.86542e+01 -1.00931e+01
       O -1.35043e+01 -2.73964e-01 -1.01583e+01
       H -1.41792e+01  2.59425e-01 -1.05354e+01
       H -1.40623e+01 -1.03200e+00 -9.84564e+00
       O -9.26763e+00 -1.23560e+01  1.38554e+00
       H -9.24221e+00 -1.30251e+01  2.15255e+00
       H -8.31250e+00 -1.22353e+01  1.24210e+00
       O -4.85676e+00 -1.81862e+01 -2.23523e+01
       H -4.14917e+00 -1.77519e+01 -2.28642e+01
       H -5.65759e+00 -1.76702e+01 -2.27332e+01
       O  1.38369e+01 -2.69049e+00 -1.36353e+01
       H  1.35134e+01 -2.48351e+00 -1.45140e+01
       H  1.40450e+01 -1.79170e+00 -1.33200e+01
       O -1.51932e+01 -3.53771e+00  2.13659e+01
       H -1.60187e+01 -3.09882e+00  2.12400e+01
       H -1.52245e+01 -4.32751e+00  2.07653e+01
       O  2.41717e+01 -1.82684e+01  1.69670e+01
       H  2.34640e+01 -1.86592e+01  1.75906e+01
       H  2.40488e+01 -1.72896e+01  1.69318e+01
       O -2.26819e+01 -1.14160e+01  1.28427e+01
       H -2.28829e+01 -1.17326e+01  1.36784e+01
       H -2.35651e+01 -1.11860e+01  1.25450e+01
       O -1.69219e+01  2.22163e+01 -7.68836e+00
       H -1.73579e+01  2.16711e+01 -7.02716e+00
       H -1.69661e+01  2.30637e+01 -7.35541e+00
       O -1.28681e+01 -9.80182e+00  1.55990e+01
       H -1.36920e+01 -9.38673e+00  1.52220e+01
       H -1.31625e+01 -1.01236e+01  1.64826e+01
       O  2.11682e+01 -2.02468e+01  1.33510e+01
       H  2.20884e+01 -2.00994e+01  1.37927e+01
       H  2.07563e+01 -1.93076e+01  1.33373e+01
       O  1.17334e+01 -2.52198e+01 -1.72653e+01
       H  1.07900e+01 -2.50615e+01 -1.73837e+01
       H  1.20313e+01 -2.43463e+01 -1.69530e+01
       O -9.87897e+00 -1.63911e+01 -4.87854e+00
       H -9.02984e+00 -1.66425e+01 -4.44983e+00
       H -1.03496e+01 -1.72741e+01 -4.99548e+00
       O  8.07358e+00 -1.75498e+01 -4.36840e+00
       H  7.18867e+00 -1.75505e+01 -3.92342e+00
       H  8.09293e+00 -1.68415e+01 -5.00439e+00
       O -9.35193e+00  1.94549e+01 -2.47872e+01
       H -9.22007e+00  1.98747e+01  2.35747e+01
       H -8.58286e+00  1.88218e+01  2.26582e+01
       O  1.36194e+01 -1.59768e+01  2.18714e+01
       H  1.45131e+01 -1.56524e+01 -2.52945e+01
       H  1.29988e+01 -1.52285e+01 -2.54388e+01
       O -2.42092e-01  1.54365e+01  3.57120e+00
       H  4.36905e-01  1.49152e+01  4.00784e+00
       H  1.20415e-01  1.55733e+01  2.66139e+00
       O -1.16791e+01  2.37159e+01  1.92971e+01
       H -1.23496e+01  2.42224e+01  1.87978e+01
       H -1.23174e+01  2.29564e+01  1.96520e+01
       O  2.40165e+01 -4.00482e+00  3.58297e+01
       H  2.40521e+01 -3.52625e+00  3.49779e+01
       H  2.48308e+01 -4.55868e+00  3.57770e+01
       O  1.86505e+01 -1.41334e+01 -1.46148e+01
       H  1.85850e+01 -1.32965e+01 -1.42216e+01
       H  1.93658e+01 -1.44679e+01 -1.40288e+01
       O -4.64839e+00 -1.13527e+01 -1.87705e+01
       H -4.72073e+00 -1.10084e+01 -1.96833e+01
       H -5.41320e+00 -1.08478e+01 -1.83919e+01
       O -1.37418e+01 -2.15318e+01 -8.29568e+00
       H -1.31724e+01  2.67141e+01 -7.87449e+00
       H -1.44255e+01 -2.09275e+01 -8.58037e+00
       O  2.75461e+01 -3.41241e+00  2.31310e+01
       H  2.69117e+01 -3.67496e+00  2.24752e+01
       H  2.81608e+01 -4.09840e+00  2.29465e+01
       O -2.37279e+01  5.93703e+00 -1.59774e+00
       H -2.35202e+01  5.82809e+00 -2.54409e+00
       H -2.41423e+01  6.84464e+00 -1.56927e+00
       O  1.85267e+01 -9.49419e+00 -1.41749e+01
       H  1.94008e+01 -8.99662e+00 -1.41585e+01
       H  1.79156e+01 -9.10526e+00 -1.35604e+01
       O -1.23139e+01 -1.53272e+01  2.67096e+01
       H -1.22384e+01 -1.43605e+01  2.69306e+01
       H -1.31479e+01 -1.53599e+01  2.61520e+01
       O -1.14362e+01 -9.75185e+00 -1.86976e+00
       H -1.18456e+01 -8.89720e+00 -2.15457e+00
       H -1.19463e+01 -1.04191e+01 -2.26770e+00
       O  1.21092e+00 -2.20268e+01 -1.34308e+01
       H  1.79807e+00 -2.13153e+01 -1.36348e+01
       H  1.20705e+00 -2.20796e+01 -1.24486e+01
       O -1.88214e+01 -5.79009e+00 -1.20564e+01
       H -1.85484e+01 -6.68380e+00 -1.23998e+01
       H -1.85278e+01 -5.92862e+00 -1.11172e+01
       O -2.06500e+01 -1.98968e+01  1.92691e+01
       H -1.97969e+01 -2.01685e+01  1.90197e+01
       H -2.06872e+01 -1.91477e+01  1.86330e+01
       O  2.47800e+00 -3.17526e+01 -2.30822e+00
       H  1.66406e+00 -3.21671e+01 -1.86800e+00
       H  2.77054e+00 -3.12844e+01 -1.54435e+00
       O -1.05278e+01 -1.27176e+01  1.74417e+01
       H -1.05092e+01 -1.23831e+01  1.64824e+01
       H -1.02424e+01 -1.36243e+01  1.73104e+01
       O  7.22009e-01 -3.44701e+00 -9.24780e+00
       H  8.93863e-01 -3.68997e+00 -1.01800e+01
       H  1.68418e+00 -3.48894e+00 -8.96644e+00
       O -1.42659e+01 -8.77756e+00 -1.39358e+01
       H -1.40388e+01 -7.93957e+00 -1.34542e+01
       H -1.49993e+01 -9.13238e+00 -1.34119e+01
       O  1.87957e+01 -1.98176e+01 -1.36808e+01
       H  1.97343e+01 -1.96583e+01 -1.37675e+01
       H  1.86054e+01 -1.94090e+01 -1.27971e+01
       O -1.20843e+01 -1.95793e+01 -7.59033e+00
       H -1.25523e+01 -1.88261e+01 -7.16232e+00
       H -1.18796e+01 -1.91825e+01 -8.41130e+00
       O -1.76989e+01 -1.50950e+01 -1.65645e+01
       H -1.86143e+01 -1.49825e+01 -1.68341e+01
       H -1.73865e+01 -1.58440e+01 -1.71165e+01
       O -1.79528e+00 -2.36439e+01 -2.35530e+01
       H -2.63561e+00 -2.38055e+01 -2.39615e+01
       H -2.12620e+00 -2.31679e+01 -2.27926e+01
       O  1.54640e+01 -2.02528e+01 -1.69597e+01
       H  1.57810e+01 -1.96954e+01 -1.61976e+01
       H  1.61244e+01 -1.99618e+01 -1.75701e+01
       O  1.77241e+01  2.42031e+01  9.17815e+00
       H  1.86486e+01  2.42663e+01  9.35908e+00
       H  1.74723e+01  2.51906e+01  9.29152e+00
       O -9.63789e+00 -5.23062e+00 -1.14694e+01
       H -9.49989e+00 -4.26490e+00 -1.16806e+01
       H -9.64103e+00 -5.25605e+00 -1.05251e+01
       O  1.25394e+00 -3.19064e+01 -5.56494e+00
       H  3.30156e-01  1.54095e+01 -5.63963e+00
       H  1.64181e+00 -3.27554e+01 -5.70742e+00
       O -1.78234e+00 -1.09998e+01 -2.14759e+01
       H -1.41157e+00 -1.00815e+01 -2.14925e+01
       H -2.37678e+00 -1.08088e+01 -2.22486e+01
       O -2.00315e+01 -3.23126e+01  9.14224e+00
       H -1.95072e+01 -3.26111e+01  8.36177e+00
       H -2.09219e+01 -3.27061e+01  8.88670e+00
       O -2.04803e+00  9.09136e+00 -3.42987e+00
       H -2.41773e+00  8.76807e+00 -2.61442e+00
       H -1.35545e+00  8.46358e+00 -3.53583e+00
       O -2.16448e+01 -7.91078e+00 -6.95802e+00
       H -2.19631e+01 -7.62569e+00 -6.09740e+00
       H -2.08181e+01 -8.30973e+00 -6.67852e+00
       O  2.79170e+01 -1.36007e+01  1.38372e+01
       H  2.69181e+01 -1.36181e+01  1.37952e+01
       H  2.79981e+01 -1.40471e+01  1.29386e+01
       O -8.25509e+00 -1.84209e+01  2.58967e+00
       H -8.40681e+00 -1.90248e+01  1.83792e+00
       H -7.93606e+00 -1.75528e+01  2.28936e+00
       O  1.39498e+01 -1.81525e+01 -6.33253e+00
       H  1.43663e+01 -1.83385e+01 -7.20248e+00
       H  1.46607e+01  2.98653e+01 -5.91591e+00
       O -1.18906e+01  1.89204e+01  1.96647e+00
       H -1.26085e+01  1.85647e+01  2.54216e+00
       H -1.19805e+01  1.82836e+01  1.27611e+00
       O -3.05106e+00 -8.23671e+00 -2.43101e+01
       H -4.01097e+00 -8.12093e+00 -2.44232e+01
       H -2.86074e+00 -7.95166e+00 -2.33749e+01
       O  2.43714e+01 -1.58017e+01  2.34435e+01
       H  2.38061e+01 -1.62836e+01  2.27808e+01
       H  2.51391e+01 -1.56125e+01  2.28954e+01
       O  1.33029e+01  2.29021e+00 -6.38836e-01
       H  1.36742e+01  1.87866e+00  1.71363e-01
       H  1.30327e+01  1.50258e+00 -1.15356e+00
       O  1.03628e+01 -1.07819e+01 -2.46134e+01
       H  9.55912e+00 -1.13209e+01 -2.45122e+01
       H  1.01689e+01 -1.03497e+01 -2.36897e+01
       O -9.84389e+00  2.44250e+01 -7.38443e+00
       H -9.19915e+00  2.37464e+01 -7.36780e+00
       H -1.00890e+01  2.42988e+01 -8.29464e+00
       O -6.78316e+00 -1.64224e+01 -1.94675e+01
       H -6.59416e+00 -1.68773e+01 -1.86184e+01
       H -6.35081e+00 -1.55708e+01 -1.93188e+01
       O  1.10379e+00 -5.53627e+00 -1.66537e+01
       H  6.02425e-01 -4.87389e+00 -1.71987e+01
       H  1.75386e+00 -5.88965e+00 -1.72859e+01
       O -4.37019e+00 -1.03401e+01  1.18525e+01
       H -4.75415e+00 -1.08365e+01  1.25840e+01
       H -5.14484e+00 -1.02269e+01  1.13449e+01
       O -9.82493e+00 -1.95658e+01 -2.54469e+01
       H -9.51024e+00 -1.87535e+01 -2.49789e+01
       H -9.73547e+00 -2.03015e+01 -2.47798e+01
       O  8.47375e+00 -2.84468e+00 -2.76461e+01
       H  8.60844e+00 -2.03314e+00 -2.82051e+01
       H  7.58342e+00 -3.19979e+00 -2.79390e+01
       O -1.14745e+01 -9.37627e+00  1.97384e+01
       H -1.12475e+01 -9.92423e+00  2.05817e+01
       H -1.24405e+01 -9.54316e+00  1.97979e+01
       O -1.00065e+01 -1.64793e+01 -7.66256e+00
       H -9.77653e+00 -1.63543e+01 -6.66312e+00
       H -9.08231e+00 -1.66979e+01 -7.99342e+00
       O -2.09270e+01 -7.96788e+00  2.55328e+01
       H -2.15503e+01 -8.13827e+00  2.47889e+01
       H -2.08481e+01 -6.99233e+00  2.54821e+01
       O  9.69901e+00 -7.00489e+00 -9.57361e+00
       H  9.00423e+00 -7.55977e+00 -9.86600e+00
       H  1.01308e+01 -7.61372e+00 -9.01616e+00
       O -8.99708e+00  1.57677e+00 -7.29244e+00
       H -8.84237e+00  9.53633e-01 -8.05323e+00
       H -9.33625e+00  2.32608e+00 -7.76420e+00
       O -4.46005e+00  6.42076e-01 -2.57895e+01
       H -4.95270e+00  1.26205e+00 -2.62898e+01
       H -3.54045e+00  6.61685e-01 -2.60773e+01
       O -4.14137e+00 -1.81702e+01 -8.79152e+00
       H -3.99768e+00 -1.90206e+01 -9.20245e+00
       H -4.62442e+00 -1.76302e+01 -9.44221e+00
       O -8.52515e-01 -1.53359e+01 -2.49888e+01
       H -3.33698e-01 -1.57424e+01 -2.42723e+01
       H -7.49229e-01 -1.43887e+01 -2.48139e+01
       O -1.65256e+00 -7.91691e+00 -1.51089e+01
       H -1.72232e+00 -8.58850e+00 -1.44037e+01
       H -1.13164e+00 -7.21677e+00 -1.46427e+01
       O -7.17593e+00  2.51766e+01 -9.69655e+00
       H -8.04824e+00  2.49639e+01 -1.00365e+01
       H -6.58644e+00  2.53571e+01 -1.04483e+01
       O -3.97695e+00 -2.10878e+01 -5.92166e+00
       H -3.55249e+00 -2.01987e+01 -5.83008e+00
       H -4.60864e+00 -2.09166e+01 -6.60900e+00
       O -1.98992e+00  1.20492e+01 -1.13977e+01
       H -1.55811e+00  1.15577e+01 -1.21696e+01
       H -2.77947e+00  1.14304e+01 -1.13572e+01
       O -9.36318e+00 -1.73002e+01 -2.41319e+01
       H -8.43840e+00 -1.70767e+01 -2.41124e+01
       H -9.61284e+00 -1.70207e+01 -2.31908e+01
       O -2.06059e+01 -1.57230e+01 -1.10546e+01
       H -2.13142e+01 -1.52232e+01 -1.06016e+01
       H -2.06639e+01 -1.65909e+01 -1.05133e+01
       O -1.82573e+01 -1.97920e+01 -2.05389e+01
       H -1.80156e+01 -1.88555e+01 -2.06930e+01
       H -1.78449e+01 -2.00869e+01 -1.98059e+01
       O  9.91224e+00  2.29256e+01 -1.05838e+01
       H  1.00492e+01  2.19863e+01 -1.08978e+01
       H  1.00691e+01  2.26076e+01 -9.68083e+00
       O -1.00953e+01  2.38240e+01 -2.04909e+01
       H -9.18709e+00  2.34931e+01 -2.02787e+01
       H -1.01757e+01  2.38254e+01 -2.14299e+01
       O  2.24618e+01 -2.17392e+01  1.60366e+01
       H  2.30797e+01 -2.10520e+01  1.57006e+01
       H  2.17281e+01 -2.12067e+01  1.62462e+01
       O -4.58478e+00 -8.17923e+00 -2.08063e+01
       H -4.52156e+00 -9.15496e+00 -2.10392e+01
       H -5.43937e+00 -8.13106e+00 -2.03361e+01
       O  1.80657e+01  2.83268e+01 -7.81045e+00
       H  1.80171e+01  2.76083e+01 -8.49126e+00
       H  1.71714e+01  2.87249e+01 -7.81471e+00
       O -2.34850e+01 -8.60579e+00 -8.80580e+00
       H -2.31258e+01 -8.46603e+00 -9.70767e+00
       H -2.26411e+01 -8.53644e+00 -8.26610e+00
       O -2.66448e+01 -2.45666e+00 -3.03341e+00
       H -2.60368e+01 -1.79958e+00 -2.68567e+00
       H -2.71120e+01 -2.03456e+00 -3.85472e+00
       O -7.16881e+00 -6.33718e+00 -1.03971e+01
       H -6.38683e+00 -6.65122e+00 -1.09653e+01
       H -7.63384e+00 -5.89178e+00 -1.11266e+01
       O -9.91324e+00  1.00342e+01  1.56585e+01
       H -1.00565e+01  1.00057e+01  1.66084e+01
       H -9.45896e+00  1.08557e+01  1.56581e+01
       O  2.94075e+00  2.39988e+01 -6.25439e+00
       H  2.91551e+00 -2.43931e+01 -6.59504e+00
       H  3.00929e+00  2.38039e+01 -5.31954e+00
       O -2.05075e+01 -1.27095e+01 -8.06661e+00
       H -2.07802e+01 -1.33469e+01 -8.75739e+00
       H -2.13255e+01 -1.26548e+01 -7.56710e+00
       O -1.77577e+01  1.58377e+01 -1.17719e+01
       H -1.75517e+01  1.65143e+01 -1.24326e+01
       H -1.81890e+01  1.51448e+01 -1.22234e+01
       O -1.71375e+01 -1.26592e+01 -6.64798e+00
       H -1.68686e+01 -1.35512e+01 -6.42900e+00
       H -1.62913e+01 -1.21987e+01 -6.82084e+00
       O -2.93235e+00 -5.50114e+00 -1.34972e+01
       H -3.07673e+00 -4.54542e+00 -1.33010e+01
       H -2.19531e+00 -5.44687e+00 -1.41122e+01
       O -5.47469e+00 -1.06898e+01 -2.12010e+01
       H -6.00748e+00 -1.04349e+01 -2.19727e+01
       H -5.94223e+00 -1.15823e+01 -2.10844e+01
       O -3.27806e+00 -2.14573e+01 -1.65721e+01
       H -2.64626e+00 -2.12608e+01 -1.72815e+01
       H -3.01143e+00 -2.23383e+01 -1.64541e+01
       O  1.92097e+01 -1.63272e+01 -9.27780e+00
       H  2.00575e+01 -1.67750e+01 -9.13272e+00
       H  1.91373e+01 -1.65892e+01 -1.01840e+01
       O -1.05675e+01 -6.54004e+00 -2.26304e+01
       H -1.10986e+01 -6.61518e+00 -2.34801e+01
       H -1.10205e+01 -5.77300e+00 -2.21275e+01
       O -2.50200e+01 -1.19666e+01 -1.49095e+01
       H -2.59483e+01 -1.17484e+01 -1.47146e+01
       H -2.49360e+01 -1.13164e+01 -1.56279e+01
       O -1.04797e+00 -1.21268e+01 -4.45545e+00
       H -9.06502e-01 -1.18306e+01 -5.39854e+00