14
# CELL(abcABC): 1000.00000  1000.00000  1000.00000    90.00000    90.00000    90.00000  Step:          87  Bead:       0 positions{angstrom}  cell{angstrom}
       C -6.20001e-01  6.36272e-01  5.59031e-02
       C  2.73752e-01 -4.04966e-01  7.21569e-01
       C -1.87032e+00  6.57794e-02 -5.94368e-01
       C -8.14755e-01  1.96689e+00  8.10311e-01
       H -1.48372e+00  1.68344e+00  1.61374e+00
       H -1.38696e+00  2.70323e+00  2.35484e-01
       H  5.39353e-02  2.47108e+00  1.23932e+00
       H -1.71004e+00 -7.16108e-01 -1.29987e+00
       H -2.39602e+00  8.68815e-01 -1.14522e+00
       H -2.59179e+00 -3.25601e-01  1.22824e-01
       H  1.25593e+00 -8.70060e-02  7.86513e-01
       H  3.13464e-01 -1.31192e+00  1.04511e-01
       H -7.36498e-02 -6.60817e-01  1.69629e+00
       H -2.75406e-02  8.75458e-01 -8.94647e-01
