4
# CELL(abcABC): 1000.00000  1000.00000  1000.00000    90.00000    90.00000    90.00000  Step:           0  Bead:       0 positions{angstrom}  cell{angstrom}
       O -3.13644e+00  1.06599e+00  3.52116e-01
       H -3.23258e+00  2.77928e-01 -1.16181e-01
       H -2.73255e+00  9.21621e-01  1.16885e+00
       H -3.63489e+00  1.95025e+00  4.37238e-02
4
# CELL(abcABC): 1000.00000  1000.00000  1000.00000    90.00000    90.00000    90.00000  Step:           1  Bead:       0 positions{angstrom}  cell{angstrom}
       O -3.13485e+00  1.06641e+00  3.51527e-01
       H -3.24227e+00  2.69009e-01 -1.12875e-01
       H -2.73126e+00  9.20548e-01  1.17149e+00
       H -3.65178e+00  1.95357e+00  4.71364e-02
4
# CELL(abcABC): 1000.00000  1000.00000  1000.00000    90.00000    90.00000    90.00000  Step:           2  Bead:       0 positions{angstrom}  cell{angstrom}
       O -3.13352e+00  1.06702e+00  3.50826e-01
       H -3.25203e+00  2.57888e-01 -1.10301e-01
       H -2.72636e+00  9.18757e-01  1.17667e+00
       H -3.66803e+00  1.95676e+00  5.04950e-02
4
# CELL(abcABC): 1000.00000  1000.00000  1000.00000    90.00000    90.00000    90.00000  Step:           3  Bead:       0 positions{angstrom}  cell{angstrom}
       O -3.13231e+00  1.06780e+00  3.49963e-01
       H -3.26099e+00  2.44487e-01 -1.06397e-01
       H -2.72023e+00  9.17632e-01  1.18407e+00
       H -3.68437e+00  1.95891e+00  5.28936e-02
4
# CELL(abcABC): 1000.00000  1000.00000  1000.00000    90.00000    90.00000    90.00000  Step:           4  Bead:       0 positions{angstrom}  cell{angstrom}
       O -3.13126e+00  1.06867e+00  3.49131e-01
       H -3.26970e+00  2.30165e-01 -1.03245e-01
       H -2.71266e+00  9.17113e-01  1.19135e+00
       H -3.69985e+00  1.95993e+00  5.56702e-02
4
# CELL(abcABC): 1000.00000  1000.00000  1000.00000    90.00000    90.00000    90.00000  Step:           5  Bead:       0 positions{angstrom}  cell{angstrom}
       O -3.13023e+00  1.06938e+00  3.48327e-01
       H -3.27847e+00  2.17566e-01 -9.92600e-02
       H -2.70559e+00  9.18057e-01  1.19873e+00
       H -3.71448e+00  1.96043e+00  5.70573e-02
4
# CELL(abcABC): 1000.00000  1000.00000  1000.00000    90.00000    90.00000    90.00000  Step:           6  Bead:       0 positions{angstrom}  cell{angstrom}
       O -3.12919e+00  1.07002e+00  3.47587e-01
       H -3.28622e+00  2.08049e-01 -9.45531e-02
       H -2.69961e+00  9.17980e-01  1.20312e+00
       H -3.72921e+00  1.95978e+00  5.97206e-02
4
# CELL(abcABC): 1000.00000  1000.00000  1000.00000    90.00000    90.00000    90.00000  Step:           7  Bead:       0 positions{angstrom}  cell{angstrom}
       O -3.12829e+00  1.07038e+00  3.46705e-01
       H -3.29137e+00  2.02125e-01 -8.65684e-02
       H -2.69467e+00  9.18240e-01  1.20560e+00
       H -3.74331e+00  1.95975e+00  6.32595e-02
4
# CELL(abcABC): 1000.00000  1000.00000  1000.00000    90.00000    90.00000    90.00000  Step:           8  Bead:       0 positions{angstrom}  cell{angstrom}
       O -3.12756e+00  1.07054e+00  3.45950e-01
       H -3.29427e+00  2.00045e-01 -7.72421e-02
       H -2.68984e+00  9.18323e-01  1.20430e+00
       H -3.75679e+00  1.95919e+00  6.72046e-02
4
# CELL(abcABC): 1000.00000  1000.00000  1000.00000    90.00000    90.00000    90.00000  Step:           9  Bead:       0 positions{angstrom}  cell{angstrom}
       O -3.12697e+00  1.07059e+00  3.45156e-01
       H -3.29580e+00  2.00769e-01 -6.50236e-02
       H -2.68511e+00  9.19273e-01  1.20039e+00
       H -3.76938e+00  1.95674e+00  7.15120e-02
4
# CELL(abcABC): 1000.00000  1000.00000  1000.00000    90.00000    90.00000    90.00000  Step:          10  Bead:       0 positions{angstrom}  cell{angstrom}
       O -3.12648e+00  1.07041e+00  3.44585e-01
       H -3.29589e+00  2.04528e-01 -5.22588e-02
       H -2.68125e+00  9.21596e-01  1.19271e+00
       H -3.78096e+00  1.95357e+00  7.54871e-02
4
# CELL(abcABC): 1000.00000  1000.00000  1000.00000    90.00000    90.00000    90.00000  Step:          11  Bead:       0 positions{angstrom}  cell{angstrom}
       O -3.12610e+00  1.07013e+00  3.44259e-01
       H -3.29451e+00  2.11130e-01 -4.01148e-02
       H -2.67940e+00  9.24247e-01  1.18217e+00
       H -3.79030e+00  1.94866e+00  7.90532e-02
4
# CELL(abcABC): 1000.00000  1000.00000  1000.00000    90.00000    90.00000    90.00000  Step:          12  Bead:       0 positions{angstrom}  cell{angstrom}
       O -3.12598e+00  1.06991e+00  3.44099e-01
       H -3.29079e+00  2.18432e-01 -2.83691e-02
       H -2.67789e+00  9.26162e-01  1.16917e+00
       H -3.79732e+00  1.94303e+00  8.28526e-02
4
# CELL(abcABC): 1000.00000  1000.00000  1000.00000    90.00000    90.00000    90.00000  Step:          13  Bead:       0 positions{angstrom}  cell{angstrom}
       O -3.12611e+00  1.06979e+00  3.43979e-01
       H -3.28625e+00  2.25756e-01 -1.72619e-02
       H -2.67463e+00  9.28289e-01  1.15607e+00
       H -3.80305e+00  1.93547e+00  8.67565e-02
4
# CELL(abcABC): 1000.00000  1000.00000  1000.00000    90.00000    90.00000    90.00000  Step:          14  Bead:       0 positions{angstrom}  cell{angstrom}
       O -3.12651e+00  1.06984e+00  3.43849e-01
       H -3.27996e+00  2.30698e-01 -7.39985e-03
       H -2.66974e+00  9.31301e-01  1.14412e+00
       H -3.80794e+00  1.92668e+00  9.08974e-02
4
# CELL(abcABC): 1000.00000  1000.00000  1000.00000    90.00000    90.00000    90.00000  Step:          15  Bead:       0 positions{angstrom}  cell{angstrom}
       O -3.12706e+00  1.07005e+00  3.43500e-01
       H -3.27563e+00  2.31735e-01  2.32365e-03
       H -2.66373e+00  9.35126e-01  1.13467e+00
       H -3.80960e+00  1.91853e+00  9.61767e-02
4
# CELL(abcABC): 1000.00000  1000.00000  1000.00000    90.00000    90.00000    90.00000  Step:          16  Bead:       0 positions{angstrom}  cell{angstrom}
       O -3.12786e+00  1.07048e+00  3.43120e-01
       H -3.27056e+00  2.28260e-01  9.05003e-03
       H -2.65581e+00  9.40416e-01  1.12831e+00
       H -3.80983e+00  1.90992e+00  1.01830e-01
4
# CELL(abcABC): 1000.00000  1000.00000  1000.00000    90.00000    90.00000    90.00000  Step:          17  Bead:       0 positions{angstrom}  cell{angstrom}
       O -3.12877e+00  1.07116e+00  3.42695e-01
       H -3.26519e+00  2.21183e-01  1.33352e-02
       H -2.64677e+00  9.46932e-01  1.12422e+00
       H -3.80978e+00  1.89959e+00  1.08388e-01
4
# CELL(abcABC): 1000.00000  1000.00000  1000.00000    90.00000    90.00000    90.00000  Step:          18  Bead:       0 positions{angstrom}  cell{angstrom}
       O -3.12981e+00  1.07195e+00  3.42227e-01
       H -3.26126e+00  2.11658e-01  1.54197e-02
       H -2.63467e+00  9.54166e-01  1.12302e+00
       H -3.80930e+00  1.88940e+00  1.14927e-01
4
# CELL(abcABC): 1000.00000  1000.00000  1000.00000    90.00000    90.00000    90.00000  Step:          19  Bead:       0 positions{angstrom}  cell{angstrom}
       O -3.13106e+00  1.07286e+00  3.41729e-01
       H -3.25718e+00  2.00006e-01  1.60676e-02
       H -2.62190e+00  9.61698e-01  1.12330e+00
       H -3.80627e+00  1.87898e+00  1.21903e-01
4
# CELL(abcABC): 1000.00000  1000.00000  1000.00000    90.00000    90.00000    90.00000  Step:          20  Bead:       0 positions{angstrom}  cell{angstrom}
       O -3.13239e+00  1.07379e+00  3.41316e-01
       H -3.25311e+00  1.88373e-01  1.39845e-02
       H -2.60929e+00  9.70334e-01  1.12493e+00
       H -3.80198e+00  1.86734e+00  1.28917e-01
4
# CELL(abcABC): 1000.00000  1000.00000  1000.00000    90.00000    90.00000    90.00000  Step:          21  Bead:       0 positions{angstrom}  cell{angstrom}
       O -3.13380e+00  1.07455e+00  3.41050e-01
       H -3.24938e+00  1.77396e-01  9.95104e-03
       H -2.59501e+00  9.80616e-01  1.12750e+00
       H -3.79748e+00  1.85598e+00  1.34591e-01
4
# CELL(abcABC): 1000.00000  1000.00000  1000.00000    90.00000    90.00000    90.00000  Step:          22  Bead:       0 positions{angstrom}  cell{angstrom}
       O -3.13525e+00  1.07495e+00  3.41013e-01
       H -3.24652e+00  1.68163e-01  6.65849e-03
       H -2.57927e+00  9.92275e-01  1.12724e+00
       H -3.79305e+00  1.84711e+00  1.38737e-01
4
# CELL(abcABC): 1000.00000  1000.00000  1000.00000    90.00000    90.00000    90.00000  Step:          23  Bead:       0 positions{angstrom}  cell{angstrom}
       O -3.13666e+00  1.07498e+00  3.41342e-01
       H -3.24318e+00  1.63211e-01  3.08634e-03
       H -2.56388e+00  1.00551e+00  1.12513e+00
       H -3.78949e+00  1.83836e+00  1.39200e-01
4
# CELL(abcABC): 1000.00000  1000.00000  1000.00000    90.00000    90.00000    90.00000  Step:          24  Bead:       0 positions{angstrom}  cell{angstrom}
       O -3.13797e+00  1.07450e+00  3.41887e-01
       H -3.23886e+00  1.61625e-01  4.66318e-05
       H -2.54982e+00  1.02077e+00  1.12034e+00
       H -3.78713e+00  1.83238e+00  1.38380e-01
4
# CELL(abcABC): 1000.00000  1000.00000  1000.00000    90.00000    90.00000    90.00000  Step:          25  Bead:       0 positions{angstrom}  cell{angstrom}
       O -3.13907e+00  1.07367e+00  3.42561e-01
       H -3.23417e+00  1.63568e-01 -1.36864e-03
       H -2.53813e+00  1.03612e+00  1.11242e+00
       H -3.78592e+00  1.82816e+00  1.37007e-01
4
# CELL(abcABC): 1000.00000  1000.00000  1000.00000    90.00000    90.00000    90.00000  Step:          26  Bead:       0 positions{angstrom}  cell{angstrom}
       O -3.13999e+00  1.07254e+00  3.43424e-01
       H -3.22908e+00  1.69073e-01 -2.62568e-03
       H -2.52823e+00  1.05166e+00  1.10099e+00
       H -3.78632e+00  1.82511e+00  1.35992e-01
4
# CELL(abcABC): 1000.00000  1000.00000  1000.00000    90.00000    90.00000    90.00000  Step:          27  Bead:       0 positions{angstrom}  cell{angstrom}
       O -3.14084e+00  1.07106e+00  3.44508e-01
       H -3.22378e+00  1.79020e-01 -3.80311e-03
       H -2.52021e+00  1.06654e+00  1.08625e+00
       H -3.78616e+00  1.82374e+00  1.34700e-01
4
# CELL(abcABC): 1000.00000  1000.00000  1000.00000    90.00000    90.00000    90.00000  Step:          28  Bead:       0 positions{angstrom}  cell{angstrom}
       O -3.14150e+00  1.06936e+00  3.45700e-01
       H -3.21921e+00  1.89650e-01 -4.72903e-03
       H -2.51303e+00  1.08146e+00  1.06947e+00
       H -3.78754e+00  1.82519e+00  1.33504e-01
4
# CELL(abcABC): 1000.00000  1000.00000  1000.00000    90.00000    90.00000    90.00000  Step:          29  Bead:       0 positions{angstrom}  cell{angstrom}
       O -3.14208e+00  1.06751e+00  3.47042e-01
       H -3.21367e+00  2.01327e-01 -7.10832e-03
       H -2.50755e+00  1.09603e+00  1.05123e+00
       H -3.78921e+00  1.82839e+00  1.32808e-01
4
# CELL(abcABC): 1000.00000  1000.00000  1000.00000    90.00000    90.00000    90.00000  Step:          30  Bead:       0 positions{angstrom}  cell{angstrom}
       O -3.14265e+00  1.06555e+00  3.48444e-01
       H -3.20747e+00  2.13086e-01 -9.29158e-03
       H -2.50219e+00  1.11006e+00  1.03302e+00
       H -3.79173e+00  1.83363e+00  1.30946e-01
4
# CELL(abcABC): 1000.00000  1000.00000  1000.00000    90.00000    90.00000    90.00000  Step:          31  Bead:       0 positions{angstrom}  cell{angstrom}
       O -3.14341e+00  1.06362e+00  3.49966e-01
       H -3.19947e+00  2.22307e-01 -1.24561e-02
       H -2.49517e+00  1.12463e+00  1.01484e+00
       H -3.79476e+00  1.84050e+00  1.28135e-01
4
# CELL(abcABC): 1000.00000  1000.00000  1000.00000    90.00000    90.00000    90.00000  Step:          32  Bead:       0 positions{angstrom}  cell{angstrom}
       O -3.14426e+00  1.06203e+00  3.51342e-01
       H -3.19214e+00  2.25482e-01 -1.66925e-02
       H -2.48572e+00  1.13984e+00  9.99389e-01
       H -3.79803e+00  1.84731e+00  1.25989e-01
4
# CELL(abcABC): 1000.00000  1000.00000  1000.00000    90.00000    90.00000    90.00000  Step:          33  Bead:       0 positions{angstrom}  cell{angstrom}
       O -3.14526e+00  1.06089e+00  3.52621e-01
       H -3.18504e+00  2.23268e-01 -2.14957e-02
       H -2.47362e+00  1.15338e+00  9.86304e-01
       H -3.80136e+00  1.85417e+00  1.23564e-01
4
# CELL(abcABC): 1000.00000  1000.00000  1000.00000    90.00000    90.00000    90.00000  Step:          34  Bead:       0 positions{angstrom}  cell{angstrom}
       O -3.14629e+00  1.06010e+00  3.54001e-01
       H -3.17713e+00  2.16559e-01 -2.80190e-02
       H -2.46113e+00  1.16564e+00  9.75312e-01
       H -3.80534e+00  1.86117e+00  1.19178e-01
4
# CELL(abcABC): 1000.00000  1000.00000  1000.00000    90.00000    90.00000    90.00000  Step:          35  Bead:       0 positions{angstrom}  cell{angstrom}
       O -3.14752e+00  1.05954e+00  3.55371e-01
       H -3.16704e+00  2.06662e-01 -3.62881e-02
       H -2.44803e+00  1.17796e+00  9.66419e-01
       H -3.80905e+00  1.86754e+00  1.14593e-01
4
# CELL(abcABC): 1000.00000  1000.00000  1000.00000    90.00000    90.00000    90.00000  Step:          36  Bead:       0 positions{angstrom}  cell{angstrom}
       O -3.14891e+00  1.05909e+00  3.56734e-01
       H -3.15616e+00  1.95382e-01 -4.53219e-02
       H -2.43359e+00  1.19057e+00  9.57549e-01
       H -3.81230e+00  1.87341e+00  1.10857e-01
4
# CELL(abcABC): 1000.00000  1000.00000  1000.00000    90.00000    90.00000    90.00000  Step:          37  Bead:       0 positions{angstrom}  cell{angstrom}
       O -3.15045e+00  1.05878e+00  3.57947e-01
       H -3.14408e+00  1.85339e-01 -5.20208e-02
       H -2.41822e+00  1.20142e+00  9.48360e-01
       H -3.81532e+00  1.87744e+00  1.07491e-01
4
# CELL(abcABC): 1000.00000  1000.00000  1000.00000    90.00000    90.00000    90.00000  Step:          38  Bead:       0 positions{angstrom}  cell{angstrom}
       O -3.15186e+00  1.05850e+00  3.59281e-01
       H -3.13254e+00  1.76944e-01 -5.86825e-02
       H -2.40317e+00  1.20984e+00  9.38367e-01
       H -3.81948e+00  1.88195e+00  1.02982e-01
4
# CELL(abcABC): 1000.00000  1000.00000  1000.00000    90.00000    90.00000    90.00000  Step:          39  Bead:       0 positions{angstrom}  cell{angstrom}
       O -3.15342e+00  1.05830e+00  3.60457e-01
       H -3.11993e+00  1.71007e-01 -6.30642e-02
       H -2.38879e+00  1.21562e+00  9.28227e-01
       H -3.82171e+00  1.88526e+00  9.88363e-02
4
# CELL(abcABC): 1000.00000  1000.00000  1000.00000    90.00000    90.00000    90.00000  Step:          40  Bead:       0 positions{angstrom}  cell{angstrom}
       O -3.15495e+00  1.05798e+00  3.61387e-01
       H -3.10717e+00  1.69064e-01 -6.43627e-02
       H -2.37589e+00  1.21997e+00  9.18293e-01
       H -3.82309e+00  1.88791e+00  9.52946e-02
4
# CELL(abcABC): 1000.00000  1000.00000  1000.00000    90.00000    90.00000    90.00000  Step:          41  Bead:       0 positions{angstrom}  cell{angstrom}
       O -3.15635e+00  1.05754e+00  3.62206e-01
       H -3.09483e+00  1.71982e-01 -6.38745e-02
       H -2.36474e+00  1.22311e+00  9.07001e-01
       H -3.82440e+00  1.88879e+00  9.31011e-02
4
# CELL(abcABC): 1000.00000  1000.00000  1000.00000    90.00000    90.00000    90.00000  Step:          42  Bead:       0 positions{angstrom}  cell{angstrom}
       O -3.15769e+00  1.05717e+00  3.63028e-01
       H -3.08138e+00  1.76924e-01 -6.16737e-02
       H -2.35611e+00  1.22473e+00  8.94332e-01
       H -3.82530e+00  1.88822e+00  9.05250e-02
4
# CELL(abcABC): 1000.00000  1000.00000  1000.00000    90.00000    90.00000    90.00000  Step:          43  Bead:       0 positions{angstrom}  cell{angstrom}
       O -3.15880e+00  1.05668e+00  3.63825e-01
       H -3.06874e+00  1.86062e-01 -5.80966e-02
       H -2.35030e+00  1.22626e+00  8.80289e-01
       H -3.82601e+00  1.88526e+00  8.83378e-02
4
# CELL(abcABC): 1000.00000  1000.00000  1000.00000    90.00000    90.00000    90.00000  Step:          44  Bead:       0 positions{angstrom}  cell{angstrom}
       O -3.15968e+00  1.05623e+00  3.64600e-01
       H -3.05660e+00  1.96929e-01 -5.39519e-02
       H -2.34728e+00  1.22620e+00  8.64482e-01
       H -3.82727e+00  1.88154e+00  8.77058e-02
4
# CELL(abcABC): 1000.00000  1000.00000  1000.00000    90.00000    90.00000    90.00000  Step:          45  Bead:       0 positions{angstrom}  cell{angstrom}
       O -3.16026e+00  1.05588e+00  3.65422e-01
       H -3.04586e+00  2.09113e-01 -4.99514e-02
       H -2.34597e+00  1.22463e+00  8.47098e-01
       H -3.83016e+00  1.87661e+00  8.80345e-02
4
# CELL(abcABC): 1000.00000  1000.00000  1000.00000    90.00000    90.00000    90.00000  Step:          46  Bead:       0 positions{angstrom}  cell{angstrom}
       O -3.16071e+00  1.05567e+00  3.66272e-01
       H -3.03608e+00  2.21681e-01 -4.66420e-02
       H -2.34643e+00  1.22172e+00  8.29147e-01
       H -3.83226e+00  1.87028e+00  8.91856e-02
4
# CELL(abcABC): 1000.00000  1000.00000  1000.00000    90.00000    90.00000    90.00000  Step:          47  Bead:       0 positions{angstrom}  cell{angstrom}
       O -3.16103e+00  1.05553e+00  3.67243e-01
       H -3.02717e+00  2.32253e-01 -4.41673e-02
       H -2.34735e+00  1.21904e+00  8.11032e-01
       H -3.83512e+00  1.86461e+00  8.94172e-02
4
# CELL(abcABC): 1000.00000  1000.00000  1000.00000    90.00000    90.00000    90.00000  Step:          48  Bead:       0 positions{angstrom}  cell{angstrom}
       O -3.16130e+00  1.05569e+00  3.68191e-01
       H -3.01868e+00  2.38771e-01 -4.31938e-02
       H -2.34770e+00  1.21748e+00  7.93697e-01
       H -3.83903e+00  1.85701e+00  9.07258e-02
4
# CELL(abcABC): 1000.00000  1000.00000  1000.00000    90.00000    90.00000    90.00000  Step:          49  Bead:       0 positions{angstrom}  cell{angstrom}
       O -3.16163e+00  1.05608e+00  3.68989e-01
       H -3.01111e+00  2.41102e-01 -4.38332e-02
       H -2.34515e+00  1.21665e+00  7.78720e-01
       H -3.84388e+00  1.84935e+00  9.36689e-02
4
# CELL(abcABC): 1000.00000  1000.00000  1000.00000    90.00000    90.00000    90.00000  Step:          50  Bead:       0 positions{angstrom}  cell{angstrom}
       O -3.16184e+00  1.05673e+00  3.69825e-01
       H -3.00503e+00  2.39809e-01 -4.69930e-02
       H -2.34202e+00  1.21648e+00  7.66469e-01
       H -3.84984e+00  1.84056e+00  9.58208e-02
4
# CELL(abcABC): 1000.00000  1000.00000  1000.00000    90.00000    90.00000    90.00000  Step:          51  Bead:       0 positions{angstrom}  cell{angstrom}
       O -3.16209e+00  1.05749e+00  3.70576e-01
       H -3.00079e+00  2.34990e-01 -5.25085e-02
       H -2.33658e+00  1.21826e+00  7.56933e-01
       H -3.85551e+00  1.83150e+00  9.89484e-02
4
# CELL(abcABC): 1000.00000  1000.00000  1000.00000    90.00000    90.00000    90.00000  Step:          52  Bead:       0 positions{angstrom}  cell{angstrom}
       O -3.16232e+00  1.05838e+00  3.71306e-01
       H -2.99875e+00  2.28013e-01 -5.93029e-02
       H -2.32900e+00  1.22124e+00  7.49023e-01
       H -3.86144e+00  1.82131e+00  1.02057e-01
4
# CELL(abcABC): 1000.00000  1000.00000  1000.00000    90.00000    90.00000    90.00000  Step:          53  Bead:       0 positions{angstrom}  cell{angstrom}
       O -3.16251e+00  1.05919e+00  3.71842e-01
       H -2.99824e+00  2.21024e-01 -6.75104e-02
       H -2.31996e+00  1.22736e+00  7.44204e-01
       H -3.86800e+00  1.80931e+00  1.06581e-01
4
# CELL(abcABC): 1000.00000  1000.00000  1000.00000    90.00000    90.00000    90.00000  Step:          54  Bead:       0 positions{angstrom}  cell{angstrom}
       O -3.16253e+00  1.05995e+00  3.71930e-01
       H -3.00011e+00  2.13972e-01 -7.43159e-02
       H -2.31063e+00  1.23575e+00  7.42127e-01
       H -3.87519e+00  1.79588e+00  1.14068e-01
4
# CELL(abcABC): 1000.00000  1000.00000  1000.00000    90.00000    90.00000    90.00000  Step:          55  Bead:       0 positions{angstrom}  cell{angstrom}
       O -3.16235e+00  1.06054e+00  3.71785e-01
       H -3.00493e+00  2.09035e-01 -7.92895e-02
       H -2.30171e+00  1.24548e+00  7.42108e-01
       H -3.88204e+00  1.78180e+00  1.21364e-01
4
# CELL(abcABC): 1000.00000  1000.00000  1000.00000    90.00000    90.00000    90.00000  Step:          56  Bead:       0 positions{angstrom}  cell{angstrom}
       O -3.16194e+00  1.06086e+00  3.71445e-01
       H -3.00983e+00  2.07065e-01 -8.20864e-02
       H -2.29472e+00  1.25579e+00  7.41771e-01
       H -3.89068e+00  1.76833e+00  1.29893e-01
4
# CELL(abcABC): 1000.00000  1000.00000  1000.00000    90.00000    90.00000    90.00000  Step:          57  Bead:       0 positions{angstrom}  cell{angstrom}
       O -3.16117e+00  1.06091e+00  3.70879e-01
       H -3.01515e+00  2.08675e-01 -8.25162e-02
       H -2.29145e+00  1.26611e+00  7.42721e-01
       H -3.90091e+00  1.75560e+00  1.38360e-01
4
# CELL(abcABC): 1000.00000  1000.00000  1000.00000    90.00000    90.00000    90.00000  Step:          58  Bead:       0 positions{angstrom}  cell{angstrom}
       O -3.16011e+00  1.06080e+00  3.70164e-01
       H -3.02103e+00  2.12340e-01 -8.12617e-02
       H -2.29095e+00  1.27654e+00  7.44311e-01
       H -3.91232e+00  1.74326e+00  1.46860e-01
4
# CELL(abcABC): 1000.00000  1000.00000  1000.00000    90.00000    90.00000    90.00000  Step:          59  Bead:       0 positions{angstrom}  cell{angstrom}
       O -3.15878e+00  1.06049e+00  3.69215e-01
       H -3.02718e+00  2.18406e-01 -7.82530e-02
       H -2.29341e+00  1.28730e+00  7.47332e-01
       H -3.92489e+00  1.73138e+00  1.55902e-01
4
# CELL(abcABC): 1000.00000  1000.00000  1000.00000    90.00000    90.00000    90.00000  Step:          60  Bead:       0 positions{angstrom}  cell{angstrom}
       O -3.15720e+00  1.06015e+00  3.68232e-01
       H -3.03510e+00  2.25494e-01 -7.39129e-02
       H -2.29824e+00  1.29701e+00  7.48516e-01
       H -3.93722e+00  1.71999e+00  1.65972e-01
4
# CELL(abcABC): 1000.00000  1000.00000  1000.00000    90.00000    90.00000    90.00000  Step:          61  Bead:       0 positions{angstrom}  cell{angstrom}
       O -3.15550e+00  1.05987e+00  3.67238e-01
       H -3.04237e+00  2.32277e-01 -6.91433e-02
       H -2.30453e+00  1.30583e+00  7.48153e-01
       H -3.95058e+00  1.70891e+00  1.77347e-01
4
# CELL(abcABC): 1000.00000  1000.00000  1000.00000    90.00000    90.00000    90.00000  Step:          62  Bead:       0 positions{angstrom}  cell{angstrom}
       O -3.15360e+00  1.05977e+00  3.66370e-01
       H -3.05024e+00  2.37233e-01 -6.47468e-02
       H -2.31407e+00  1.31338e+00  7.47119e-01
       H -3.96334e+00  1.69787e+00  1.87768e-01
4
# CELL(abcABC): 1000.00000  1000.00000  1000.00000    90.00000    90.00000    90.00000  Step:          63  Bead:       0 positions{angstrom}  cell{angstrom}
       O -3.15161e+00  1.05975e+00  3.65355e-01
       H -3.05723e+00  2.41165e-01 -6.03059e-02
       H -2.32500e+00  1.31940e+00  7.46034e-01
       H -3.97704e+00  1.68829e+00  2.00524e-01
4
# CELL(abcABC): 1000.00000  1000.00000  1000.00000    90.00000    90.00000    90.00000  Step:          64  Bead:       0 positions{angstrom}  cell{angstrom}
       O -3.14972e+00  1.05995e+00  3.64305e-01
       H -3.06211e+00  2.42526e-01 -5.57588e-02
       H -2.33543e+00  1.32454e+00  7.45524e-01
       H -3.99167e+00  1.67867e+00  2.13140e-01
4
# CELL(abcABC): 1000.00000  1000.00000  1000.00000    90.00000    90.00000    90.00000  Step:          65  Bead:       0 positions{angstrom}  cell{angstrom}
       O -3.14802e+00  1.06033e+00  3.63272e-01
       H -3.06668e+00  2.41170e-01 -5.34561e-02
       H -2.34377e+00  1.33053e+00  7.45856e-01
       H -4.00581e+00  1.66797e+00  2.26907e-01
4
# CELL(abcABC): 1000.00000  1000.00000  1000.00000    90.00000    90.00000    90.00000  Step:          66  Bead:       0 positions{angstrom}  cell{angstrom}
       O -3.14659e+00  1.06084e+00  3.62117e-01
       H -3.07013e+00  2.39152e-01 -5.16291e-02
       H -2.34958e+00  1.33485e+00  7.47836e-01
       H -4.01925e+00  1.65753e+00  2.41436e-01
4
# CELL(abcABC): 1000.00000  1000.00000  1000.00000    90.00000    90.00000    90.00000  Step:          67  Bead:       0 positions{angstrom}  cell{angstrom}
       O -3.14539e+00  1.06164e+00  3.60911e-01
       H -3.07203e+00  2.33330e-01 -5.17162e-02
       H -2.35188e+00  1.33922e+00  7.51863e-01
       H -4.03399e+00  1.64631e+00  2.56635e-01
4
# CELL(abcABC): 1000.00000  1000.00000  1000.00000    90.00000    90.00000    90.00000  Step:          68  Bead:       0 positions{angstrom}  cell{angstrom}
       O -3.14454e+00  1.06256e+00  3.59786e-01
       H -3.07198e+00  2.25147e-01 -5.28272e-02
       H -2.35081e+00  1.34361e+00  7.55749e-01
       H -4.04861e+00  1.63556e+00  2.71723e-01
4
# CELL(abcABC): 1000.00000  1000.00000  1000.00000    90.00000    90.00000    90.00000  Step:          69  Bead:       0 positions{angstrom}  cell{angstrom}
       O -3.14392e+00  1.06368e+00  3.58403e-01
       H -3.07102e+00  2.14475e-01 -5.24960e-02
       H -2.34779e+00  1.34792e+00  7.61678e-01
       H -4.06251e+00  1.62400e+00  2.87416e-01
4
# CELL(abcABC): 1000.00000  1000.00000  1000.00000    90.00000    90.00000    90.00000  Step:          70  Bead:       0 positions{angstrom}  cell{angstrom}
       O -3.14369e+00  1.06471e+00  3.56940e-01
       H -3.06847e+00  2.04680e-01 -5.26681e-02
       H -2.34273e+00  1.35263e+00  7.67990e-01
       H -4.07380e+00  1.61284e+00  3.04497e-01
4
# CELL(abcABC): 1000.00000  1000.00000  1000.00000    90.00000    90.00000    90.00000  Step:          71  Bead:       0 positions{angstrom}  cell{angstrom}
       O -3.14358e+00  1.06578e+00  3.55473e-01
       H -3.06548e+00  1.95168e-01 -5.33040e-02
       H -2.33733e+00  1.35614e+00  7.73907e-01
       H -4.08392e+00  1.60180e+00  3.22510e-01
4
# CELL(abcABC): 1000.00000  1000.00000  1000.00000    90.00000    90.00000    90.00000  Step:          72  Bead:       0 positions{angstrom}  cell{angstrom}
       O -3.14361e+00  1.06667e+00  3.53894e-01
       H -3.06112e+00  1.88337e-01 -5.22812e-02
       H -2.33195e+00  1.35887e+00  7.80056e-01
       H -4.09306e+00  1.59176e+00  3.40401e-01
4
# CELL(abcABC): 1000.00000  1000.00000  1000.00000    90.00000    90.00000    90.00000  Step:          73  Bead:       0 positions{angstrom}  cell{angstrom}
       O -3.14365e+00  1.06748e+00  3.52345e-01
       H -3.05601e+00  1.84394e-01 -4.97831e-02
       H -2.32779e+00  1.36080e+00  7.85193e-01
       H -4.10174e+00  1.58093e+00  3.57343e-01
4
# CELL(abcABC): 1000.00000  1000.00000  1000.00000    90.00000    90.00000    90.00000  Step:          74  Bead:       0 positions{angstrom}  cell{angstrom}
       O -3.14371e+00  1.06811e+00  3.50945e-01
       H -3.04979e+00  1.83844e-01 -4.68955e-02
       H -2.32563e+00  1.36142e+00  7.87721e-01
       H -4.10920e+00  1.57092e+00  3.74161e-01
4
# CELL(abcABC): 1000.00000  1000.00000  1000.00000    90.00000    90.00000    90.00000  Step:          75  Bead:       0 positions{angstrom}  cell{angstrom}
       O -3.14357e+00  1.06865e+00  3.49561e-01
       H -3.04337e+00  1.85552e-01 -4.29669e-02
       H -2.32650e+00  1.36008e+00  7.89351e-01
       H -4.11705e+00  1.56196e+00  3.90564e-01
4
# CELL(abcABC): 1000.00000  1000.00000  1000.00000    90.00000    90.00000    90.00000  Step:          76  Bead:       0 positions{angstrom}  cell{angstrom}
       O -3.14345e+00  1.06896e+00  3.48088e-01
       H -3.03550e+00  1.90423e-01 -3.65655e-02
       H -2.33000e+00  1.35753e+00  7.89415e-01
       H -4.12325e+00  1.55477e+00  4.07474e-01
4
# CELL(abcABC): 1000.00000  1000.00000  1000.00000    90.00000    90.00000    90.00000  Step:          77  Bead:       0 positions{angstrom}  cell{angstrom}
       O -3.14321e+00  1.06916e+00  3.46632e-01
       H -3.02716e+00  1.98358e-01 -2.91697e-02
       H -2.33620e+00  1.35424e+00  7.88616e-01
       H -4.12919e+00  1.54692e+00  4.23991e-01
4
# CELL(abcABC): 1000.00000  1000.00000  1000.00000    90.00000    90.00000    90.00000  Step:          78  Bead:       0 positions{angstrom}  cell{angstrom}
       O -3.14291e+00  1.06935e+00  3.45414e-01
       H -3.01948e+00  2.06608e-01 -2.23190e-02
       H -2.34317e+00  1.35088e+00  7.86444e-01
       H -4.13463e+00  1.53896e+00  4.38650e-01
4
# CELL(abcABC): 1000.00000  1000.00000  1000.00000    90.00000    90.00000    90.00000  Step:          79  Bead:       0 positions{angstrom}  cell{angstrom}
       O -3.14273e+00  1.06968e+00  3.44255e-01
       H -3.01194e+00  2.15135e-01 -1.44311e-02
       H -2.34955e+00  1.34638e+00  7.83404e-01
       H -4.13872e+00  1.52966e+00  4.52207e-01
4
# CELL(abcABC): 1000.00000  1000.00000  1000.00000    90.00000    90.00000    90.00000  Step:          80  Bead:       0 positions{angstrom}  cell{angstrom}
       O -3.14275e+00  1.07014e+00  3.43094e-01
       H -3.00351e+00  2.22345e-01 -7.43974e-03
       H -2.35524e+00  1.34176e+00  7.81264e-01
       H -4.14113e+00  1.51987e+00  4.65785e-01
4
# CELL(abcABC): 1000.00000  1000.00000  1000.00000    90.00000    90.00000    90.00000  Step:          81  Bead:       0 positions{angstrom}  cell{angstrom}
       O -3.14300e+00  1.07060e+00  3.42112e-01
       H -2.99249e+00  2.27681e-01 -2.56325e-03
       H -2.36037e+00  1.33963e+00  7.79651e-01
       H -4.14308e+00  1.50928e+00  4.78109e-01
4
# CELL(abcABC): 1000.00000  1000.00000  1000.00000    90.00000    90.00000    90.00000  Step:          82  Bead:       0 positions{angstrom}  cell{angstrom}
       O -3.14344e+00  1.07137e+00  3.41154e-01
       H -2.98031e+00  2.28991e-01  1.17793e-03
       H -2.36339e+00  1.33738e+00  7.78707e-01
       H -4.14524e+00  1.49806e+00  4.90507e-01
4
# CELL(abcABC): 1000.00000  1000.00000  1000.00000    90.00000    90.00000    90.00000  Step:          83  Bead:       0 positions{angstrom}  cell{angstrom}
       O -3.14411e+00  1.07221e+00  3.40311e-01
       H -2.96780e+00  2.27289e-01  3.34403e-03
       H -2.36433e+00  1.33696e+00  7.78751e-01
       H -4.14612e+00  1.48687e+00  5.01681e-01
4
# CELL(abcABC): 1000.00000  1000.00000  1000.00000    90.00000    90.00000    90.00000  Step:          84  Bead:       0 positions{angstrom}  cell{angstrom}
       O -3.14493e+00  1.07313e+00  3.39605e-01
       H -2.95420e+00  2.21995e-01  2.61831e-03
       H -2.36426e+00  1.33840e+00  7.79682e-01
       H -4.14676e+00  1.47608e+00  5.12683e-01
4
# CELL(abcABC): 1000.00000  1000.00000  1000.00000    90.00000    90.00000    90.00000  Step:          85  Bead:       0 positions{angstrom}  cell{angstrom}