11135
# CELL(abcABC):   47.46614    47.46614    47.46614    90.00000    90.00000    90.00000  Step:        6250  Bead:       0 positions{angstrom}  cell{angstrom}
       C -6.58282e+00 -1.72492e+00  4.52412e+00
       H -6.73712e+00 -6.65213e-01  4.76381e+00
       H -6.48325e+00 -2.22164e+00  5.48739e+00
       H -7.39728e+00 -2.09530e+00  3.92355e+00
       C -5.38348e+00 -1.83867e+00  3.74682e+00
       O -4.58283e+00 -2.78727e+00  3.84015e+00
       N -5.19359e+00 -7.97923e-01  2.82156e+00
       H -5.93480e+00 -1.52867e-01  2.70556e+00
       C -4.12749e+00 -9.37279e-01  1.82465e+00
       H -4.08885e+00 -1.97369e+00  1.47335e+00
       C -4.41234e+00  2.28743e-02  6.47037e-01
       H -3.50670e+00  2.74469e-02  1.96073e-02
       H -4.57248e+00  9.60386e-01  1.09214e+00
       C -5.67475e+00 -3.21069e-01 -1.08188e-01
       H -6.51168e+00 -4.65951e-01  5.50210e-01
       H -5.57052e+00 -1.29995e+00 -5.80266e-01
       C -5.99925e+00  7.92851e-01 -1.04153e+00
       H -5.05225e+00  1.11090e+00 -1.56280e+00
       H -6.28483e+00  1.70739e+00 -4.26331e-01
       C -7.03416e+00  6.25314e-01 -2.13884e+00
       H -7.08564e+00  1.56000e+00 -2.67792e+00
       H -7.96070e+00  3.12260e-01 -1.66374e+00
       N -6.68400e+00 -4.28050e-01 -3.08171e+00
       H -5.66769e+00 -5.10413e-01 -3.29107e+00
       H -7.23898e+00 -2.74477e-01 -3.96348e+00
       H -6.97397e+00 -1.36740e+00 -2.69987e+00
       C -2.79938e+00 -6.33125e-01  2.44523e+00
       O -2.57425e+00 -2.75052e-01  3.61473e+00
       N -1.72910e+00 -7.25509e-01  1.60523e+00
       H -1.75323e+00 -1.28067e+00  7.49990e-01
       H -7.92225e-01 -6.73078e-01  1.97124e+00
       O -1.12231e+01 -3.87115e+00 -2.60823e+01
       H -1.09838e+01 -4.76944e+00 -2.59099e+01
       H -1.09248e+01 -3.70407e+00 -2.69972e+01
       O -2.12555e+01 -6.04925e+00 -9.52160e+00
       H -2.11402e+01 -5.10917e+00 -9.31726e+00
       H -2.03956e+01 -6.32414e+00 -9.85579e+00
       O  1.19358e+01 -1.41089e+01 -3.36389e+00
       H  1.12735e+01 -1.44006e+01 -4.03242e+00
       H  1.27240e+01 -1.46388e+01 -3.61324e+00
       O -1.66978e+01 -1.56854e+01 -2.29025e+01
       H -1.68584e+01 -1.63570e+01 -2.22081e+01
       H -1.61997e+01 -1.61584e+01 -2.35385e+01
       O -1.19884e+01 -8.75172e+00 -1.47234e+01
       H -1.24756e+01 -8.09735e+00 -1.52195e+01
       H -1.24019e+01 -8.80579e+00 -1.39061e+01
       O  2.31095e+01 -2.23735e+01  2.27985e+01
       H  2.40625e+01 -2.22885e+01  2.27442e+01
       H  2.28918e+01 -2.32467e+01  2.24480e+01
       O -1.66985e+01 -9.16155e+00 -4.30887e+00
       H -1.72932e+01 -9.85799e+00 -4.05805e+00
       H -1.60738e+01 -9.62577e+00 -4.98523e+00
       O  1.72464e+01 -2.36745e+01 -1.67138e+01
       H  1.77528e+01 -2.39161e+01 -1.59181e+01
       H  1.62853e+01 -2.37043e+01 -1.64083e+01
       O -1.22127e+01 -2.05572e+01 -2.08716e+00
       H -1.16963e+01 -2.01701e+01 -2.78994e+00
       H -1.28760e+01 -2.10591e+01 -2.61207e+00
       O  1.49750e+01 -2.23030e+01 -1.05687e+01
       H  1.55991e+01 -2.15888e+01 -1.08803e+01
       H  1.44816e+01 -2.16393e+01 -1.00413e+01
       O -2.81871e+01 -1.37595e+01 -5.40227e+00
       H -2.77105e+01 -1.31538e+01 -5.97146e+00
       H -2.82086e+01 -1.32427e+01 -4.60835e+00
       O  4.65960e+00 -2.81855e+01 -3.09346e+00
       H  5.53279e+00 -2.84106e+01 -3.49946e+00
       H  4.34221e+00 -2.90537e+01 -2.75200e+00
       O  6.42780e+00  1.59701e+01 -8.86380e+00
       H  7.36894e+00  1.59979e+01 -8.69768e+00
       H  6.11127e+00  1.55929e+01 -8.04867e+00
       O -3.37462e+01 -1.03426e+01 -8.12499e+00
       H -3.42582e+01 -1.01486e+01 -8.95322e+00
       H -3.29478e+01 -1.09327e+01 -8.37965e+00
       O -4.73709e+00 -1.73115e+01 -2.37911e+01
       H -5.12429e+00 -1.65108e+01 -2.42171e+01
       H -5.37252e+00 -1.80237e+01 -2.40059e+01
       O -3.17312e+00 -1.16887e+01 -1.01790e+01
       H -2.46577e+00 -1.13676e+01 -1.07864e+01
       H -2.73737e+00 -1.24878e+01 -1.00175e+01
       O -8.60144e+00 -1.84856e+01 -2.95399e+00
       H -7.62362e+00 -1.85642e+01 -3.04518e+00
       H -8.87133e+00 -1.92404e+01 -3.47900e+00
       O -1.03952e+00 -1.61112e+01 -2.54262e+01
       H -4.91157e-01 -1.56680e+01 -2.47418e+01
       H -6.25334e-01 -1.69765e+01 -2.54341e+01
       O -4.64238e+00 -1.63236e+01 -1.27780e+01
       H -5.19081e+00 -1.71276e+01 -1.29429e+01
       H -5.32402e+00 -1.58294e+01 -1.21770e+01
       O -2.87847e+00  1.88149e+01 -2.49786e+00
       H -2.89070e+00  1.80229e+01 -2.00818e+00
       H -3.31777e+00  1.84438e+01 -3.25263e+00
       O -2.42841e+01 -6.13417e+00 -6.36302e+00
       H -2.46668e+01 -5.37928e+00 -5.92107e+00
       H -2.43905e+01 -5.83101e+00 -7.27366e+00
       O -2.58085e+01 -5.59550e+00 -1.10519e+01
       H -2.50826e+01 -5.93434e+00 -1.16409e+01
       H -2.58267e+01 -4.69032e+00 -1.12982e+01
       O  2.45198e+01 -1.59992e+01 -2.16260e+01
       H  2.42563e+01 -1.69402e+01 -2.17406e+01
       H  2.47226e+01 -1.58236e+01 -2.25670e+01
       O -1.35036e+01 -1.60317e+01 -1.50973e+01
       H -1.43637e+01 -1.62481e+01 -1.55239e+01
       H -1.34044e+01 -1.51396e+01 -1.55669e+01
       O -6.26531e+00 -2.08898e+01 -1.44187e+01
       H -6.45984e+00 -2.17761e+01 -1.48094e+01
       H -6.90852e+00 -2.03526e+01 -1.48593e+01
       O -1.73423e+01 -1.20883e+01  2.31301e+01
       H -1.81417e+01 -1.16428e+01  2.33712e+01
       H -1.76387e+01 -1.27619e+01  2.25487e+01
       O -1.78614e+00 -3.45455e+01 -1.92676e+01
       H -8.50110e-01 -3.45955e+01 -1.94732e+01
       H -2.11153e+00 -3.52889e+01 -1.97342e+01
       O -4.99562e+00 -3.97487e+00  1.72534e+01
       H -4.85613e+00 -4.05469e+00  1.63025e+01
       H -5.53362e+00 -3.19188e+00  1.72896e+01
       O -1.26736e+01  1.28747e+00 -1.47597e-02
       H -1.22709e+01  2.04063e+00  4.42146e-01
       H -1.33949e+01  9.29554e-01  6.03038e-01
       O -2.49846e+01 -7.40565e+00  2.59139e+01
       H -2.52230e+01 -6.95901e+00  2.50592e+01
       H -2.48900e+01 -6.59996e+00  2.65243e+01
       O -1.83478e+01 -1.46381e+01 -1.59969e+01
       H -1.91218e+01 -1.47487e+01 -1.65267e+01
       H -1.86917e+01 -1.44045e+01 -1.51039e+01
       O  1.45300e+00 -9.48730e+00 -2.03909e+01
       H  2.40702e+00 -9.52136e+00 -2.02937e+01
       H  1.32557e+00 -1.04075e+01 -2.06558e+01
       O  3.21828e+00 -9.64086e+00 -2.97889e+01
       H  2.26393e+00 -9.39097e+00 -2.95552e+01
       H  3.03386e+00 -1.05278e+01 -3.01927e+01
       O -6.76887e+00 -2.31958e+01  5.23374e+00
       H -6.13339e+00 -2.37553e+01  5.81333e+00
       H -7.54794e+00 -2.36919e+01  5.38590e+00
       O -1.62775e+01 -1.51839e+01 -1.35794e+01
       H -1.67807e+01 -1.52636e+01 -1.44207e+01
       H -1.54875e+01 -1.57490e+01 -1.37307e+01
       O -2.42611e+01 -2.26126e+01  1.96597e+01
       H -2.49360e+01 -2.26743e+01  1.89619e+01
       H -2.47708e+01 -2.21060e+01  2.02817e+01
       O -1.58318e+01 -2.52183e+01 -4.95385e+00
       H -1.65730e+01 -2.47885e+01 -5.38930e+00
       H -1.59191e+01 -2.60408e+01 -5.42806e+00
       O  9.23286e-01 -2.62041e+00 -2.88444e+01
       H  9.01975e-01 -2.89738e+00 -2.79213e+01
       H  1.73989e+00 -3.03860e+00 -2.90952e+01
       O -1.09380e+01  3.48474e+00 -1.03219e+01
       H -1.00580e+01  3.06796e+00 -1.05749e+01
       H -1.09493e+01  3.36036e+00 -9.36039e+00
       O -3.33021e+00 -2.23591e+01 -1.58348e+01
       H -3.88837e+00 -2.15846e+01 -1.57149e+01
       H -2.55465e+00 -2.18437e+01 -1.62070e+01
       O  1.48549e+01 -1.76536e+01 -8.40146e+00
       H  1.50027e+01 -1.85114e+01 -7.90438e+00
       H  1.53519e+01 -1.79507e+01 -9.19733e+00
       O -1.26958e+01 -2.88898e+00 -3.60619e+01
       H -1.36015e+01 -2.71118e+00  1.11247e+01
       H -1.24498e+01 -3.49277e+00 -3.67883e+01
       O  1.43933e+01 -2.28765e+01 -1.57977e+01
       H  1.36243e+01 -2.30014e+01 -1.52156e+01
       H  1.49002e+01 -2.21193e+01 -1.54050e+01
       O -1.96987e+01 -9.96966e+00 -2.13360e+01
       H -2.05729e+01 -9.53695e+00 -2.09810e+01
       H -1.95719e+01 -1.05919e+01 -2.05637e+01
       O -2.55701e+01 -2.13344e+01 -1.37164e+01
       H -2.48703e+01 -2.06790e+01 -1.37980e+01
       H -2.50041e+01 -2.21979e+01 -1.36212e+01
       O -4.88377e+00 -1.60671e+01  8.29082e+00
       H -4.69220e+00 -1.62766e+01  9.21318e+00
       H -4.08666e+00 -1.65021e+01  7.87071e+00
       O -1.45038e+01 -1.71670e+01  1.86684e+00
       H -1.50952e+01 -1.64881e+01  2.13136e+00
       H -1.51044e+01 -1.78655e+01  1.58164e+00
       O  8.76506e+00 -1.16334e+01 -1.15101e+01
       H  8.28671e+00 -1.08661e+01 -1.18617e+01
       H  7.99492e+00 -1.21568e+01 -1.10870e+01
       O  7.89259e+00 -1.00178e+01 -1.36075e+01
       H  7.85947e+00 -1.04664e+01 -1.44669e+01
       H  8.57093e+00 -9.34526e+00 -1.37487e+01
       O -2.32532e+01  3.06924e+00 -1.26276e+01
       H -2.39159e+01  2.94231e+00 -1.33402e+01
       H -2.25916e+01  3.44014e+00 -1.31954e+01
       O -1.61617e+01 -5.33337e+00 -2.58272e+01
       H -1.59277e+01 -6.17714e+00 -2.62375e+01
       H -1.52793e+01 -4.81932e+00 -2.59263e+01
       O -1.46547e+01 -1.21063e+01 -1.96319e+01
       H -1.55245e+01 -1.17516e+01 -1.99156e+01
       H -1.49353e+01 -1.24868e+01 -1.88660e+01
       O -1.08041e+01 -1.32995e+01 -2.38286e+01
       H -9.97270e+00 -1.37640e+01 -2.36314e+01
       H -1.03611e+01 -1.25536e+01 -2.43130e+01
       O -9.16431e+00 -3.52781e+00 -9.00149e+00
       H -9.60072e+00 -3.43538e+00 -9.92809e+00
       H -9.93677e+00 -3.48984e+00 -8.33673e+00
       O  3.81408e+00 -8.92677e+00 -1.74609e+01
       H  3.59258e+00 -8.94301e+00 -1.83835e+01
       H  4.09305e+00 -9.85666e+00 -1.74060e+01
       O -1.53381e+01 -1.11803e+01  1.37841e+00
       H -1.54618e+01 -1.11856e+01  2.31533e+00
       H -1.56603e+01 -1.21026e+01  1.20535e+00
       O -1.68405e+01 -4.89655e+00 -7.82655e-01
       H -1.61465e+01 -5.34117e+00 -3.18427e-01
       H -1.75182e+01 -5.34876e+00 -2.80442e-01
       O -3.51028e+00 -1.65981e+01 -2.14779e+01
       H -4.05583e+00 -1.69527e+01 -2.22103e+01
       H -3.27366e+00 -1.73978e+01 -2.09486e+01
       O -3.33211e+00 -1.98015e+01 -1.41939e+01
       H -2.60009e+00 -2.03623e+01 -1.42952e+01
       H -3.78500e+00 -2.04299e+01 -1.35656e+01
       O -2.48271e+00  2.55062e+01  7.55360e+00
       H -2.90703e+00  2.55420e+01  6.72805e+00
       H -1.61929e+00  2.50182e+01  7.46278e+00
       O -8.85888e+00 -2.01534e+00 -2.57729e+01
       H -9.56207e+00 -2.63054e+00 -2.58763e+01
       H -8.14904e+00 -2.61747e+00 -2.55191e+01
       O -7.41826e+00  2.78915e+01  4.91383e+00
       H -7.84544e+00  2.72481e+01  5.53776e+00
       H -6.74775e+00  2.73519e+01  4.53408e+00
       O -6.42486e+00 -1.56353e+01 -1.10323e+01
       H -7.40448e+00 -1.56035e+01 -1.10580e+01
       H -6.30163e+00 -1.58428e+01 -1.01060e+01
       O  2.18064e+00 -1.33258e+01 -2.83042e+00
       H  1.54301e+00 -1.25929e+01 -3.00751e+00
       H  3.05978e+00 -1.28624e+01 -3.02350e+00
       O -2.77700e+00 -8.78282e+00  6.58590e+00
       H -3.62101e+00 -8.83358e+00  6.10616e+00
       H -2.38652e+00 -7.94311e+00  6.16763e+00
       O -1.33078e+01 -4.02997e+00  1.40252e+01
       H -1.39843e+01 -4.61828e+00  1.36844e+01
       H -1.32212e+01 -3.54291e+00  1.32590e+01
       O -1.87375e+01 -9.71186e+00 -1.08804e+01
       H -1.92376e+01 -1.05416e+01 -1.09788e+01
       H -1.86166e+01 -9.73061e+00 -9.89944e+00
       O  8.29685e-01 -1.27062e+01 -9.56969e+00
       H  5.37255e-01 -1.18216e+01 -9.14304e+00
       H  1.67738e+00 -1.25361e+01 -9.96194e+00
       O -1.31792e+01 -2.06036e+01 -1.14815e+01
       H -1.39127e+01 -1.99616e+01 -1.13919e+01
       H -1.37050e+01 -2.14660e+01 -1.17548e+01
       O -3.47798e+01 -2.42783e+01  2.06985e+01
       H -3.44550e+01 -2.51323e+01  2.10075e+01
       H -3.41265e+01 -2.36167e+01  2.10565e+01
       O  1.80896e+01  2.60166e+01  2.42436e+01
       H  1.90759e+01  2.60733e+01  2.43455e+01
       H  1.80480e+01  2.51666e+01  2.37630e+01
       O -3.55454e+00 -1.41976e+01 -8.67911e+00
       H -2.97462e+00 -1.36896e+01 -8.06772e+00
       H -2.84321e+00 -1.46553e+01 -9.12090e+00
       O -1.12663e+01 -1.27264e+01 -1.28178e+01
       H -1.06723e+01 -1.27080e+01 -1.20956e+01
       H -1.21038e+01 -1.28493e+01 -1.23427e+01
       O -1.55000e+01 -6.46120e+00  7.16121e+00
       H -1.49619e+01 -6.42929e+00  6.40391e+00
       H -1.54795e+01 -5.54573e+00  7.42112e+00
       O -1.37276e+01 -1.89737e+01 -2.74796e+01
       H -1.30243e+01 -1.96421e+01 -2.73557e+01
       H -1.32220e+01 -1.83072e+01 -2.79660e+01
       O -2.06189e+01 -1.55040e+01 -2.57244e+01
       H -2.04826e+01 -1.63006e+01 -2.62007e+01
       H -2.04896e+01 -1.47684e+01 -2.63533e+01
       O -3.83198e+00 -1.16098e+01 -1.33538e+01
       H -2.89655e+00 -1.13948e+01 -1.30653e+01
       H -3.81774e+00 -1.25189e+01 -1.32605e+01
       O -1.34072e+01 -1.36884e+01 -1.65059e+01
       H -1.30864e+01 -1.30834e+01 -1.58699e+01
       H -1.42835e+01 -1.32305e+01 -1.66886e+01
       O -1.52421e+01 -2.08374e+01 -1.56438e+01
       H -1.57538e+01 -2.01466e+01 -1.52460e+01
       H -1.48695e+01 -2.04370e+01 -1.64766e+01
       O -1.47254e+01 -1.55811e+01 -1.05083e+01
       H -1.42198e+01 -1.58765e+01 -1.12326e+01
       H -1.47960e+01 -1.64794e+01 -9.96244e+00
       O -9.30700e+00 -1.53488e+01 -1.11521e+01
       H -8.94402e+00 -1.44197e+01 -1.11564e+01
       H -9.80929e+00 -1.53674e+01 -1.19912e+01
       O  1.94335e+01 -1.29610e+01 -1.00025e+01
       H  2.02168e+01 -1.24104e+01 -9.88182e+00
       H  1.93268e+01 -1.28947e+01 -1.09443e+01
       O -6.94367e+00 -2.76449e+01 -2.53301e+00
       H -7.58554e+00 -2.70269e+01 -2.95996e+00
       H -6.40465e+00 -2.77827e+01 -3.38515e+00
       O -1.81965e+01 -2.42856e+01  1.11175e+01
       H -1.84141e+01 -2.51190e+01  1.07348e+01
       H -1.80045e+01 -2.36004e+01  1.04343e+01
       O -1.31195e+01 -1.04097e+01 -3.59811e+00
       H -1.33688e+01 -9.49138e+00 -3.84911e+00
       H -1.38364e+01 -1.09931e+01 -3.93942e+00
       O -1.50900e+01  3.86907e-01 -1.82252e+01
       H -1.52136e+01  1.17142e+00 -1.76811e+01
       H -1.54299e+01 -2.72744e-01 -1.75767e+01
       O  2.83179e+01 -1.77659e+01  1.14414e+00
       H  2.88999e+01 -1.72491e+01  6.21666e-01
       H  2.88765e+01 -1.84617e+01  1.51273e+00
       O  1.16867e+01 -1.55703e+01 -2.37477e+01
       H  1.11430e+01 -1.63165e+01 -2.40226e+01
       H  1.18689e+01 -1.57018e+01 -2.27945e+01
       O  4.71987e+00 -2.33394e+01 -1.48121e+00
       H  5.22127e+00 -2.26140e+01 -1.03668e+00
       H  5.42885e+00 -2.39314e+01 -1.74751e+00
       O -2.02165e+01 -1.56695e+01 -2.06179e+01
       H -2.00658e+01 -1.57215e+01 -2.15491e+01
       H -2.11812e+01 -1.58953e+01 -2.07598e+01
       O -1.22974e+00 -1.10984e+01 -1.20345e+01
       H -4.74290e-01 -1.16484e+01 -1.18285e+01
       H -7.54715e-01 -1.02408e+01 -1.22201e+01
       O  1.92092e+00 -5.70598e+00 -8.39122e+00
       H  2.68222e+00 -5.18090e+00 -8.55030e+00
       H  1.38553e+00 -5.52631e+00 -9.21726e+00
       O -9.81741e+00 -4.77955e+00  1.22339e+00
       H -9.55511e+00 -5.59297e+00  7.20438e-01
       H -1.02942e+01 -5.19055e+00  1.98275e+00
       O -1.23385e+01  1.30595e+01 -1.30535e+01
       H -1.24388e+01  1.25330e+01 -1.39163e+01
       H -1.17139e+01  1.24189e+01 -1.26958e+01
       O -9.14398e-01 -1.09775e+01 -2.81151e+01
       H -2.50655e-02 -1.14614e+01 -2.79483e+01
       H -1.58863e+00 -1.13478e+01 -2.74733e+01
       O -2.29416e+01 -1.18329e+01  2.44317e+01
       H -2.32691e+01 -1.09558e+01  2.43222e+01
       H -2.29112e+01 -1.21078e+01  2.34781e+01
       O  1.92782e+01 -1.65404e+01  3.65297e+01
       H  1.94020e+01 -1.61464e+01  3.74094e+01
       H  2.00781e+01 -1.62582e+01  3.60845e+01
       O -1.20858e+01 -1.05863e+01 -1.68665e+01
       H -1.17119e+01 -9.87462e+00 -1.62707e+01
       H -1.14164e+01 -1.13023e+01 -1.67374e+01
       O -1.89136e+01 -1.39188e+01 -1.88835e+01
       H -1.89370e+01 -1.29799e+01 -1.90831e+01
       H -1.92033e+01 -1.43576e+01 -1.96518e+01
       O -2.62187e+01 -6.98861e+00  2.96195e+01
       H -2.69627e+01 -6.81835e+00  2.90060e+01
       H -2.64372e+01 -7.91996e+00  2.98708e+01
       O -1.31647e+01 -1.40228e+01 -2.48506e+01
       H -1.22216e+01 -1.36944e+01 -2.44981e+01
       H -1.36357e+01 -1.31369e+01 -2.49132e+01
       O -7.55523e+00 -1.70435e+01 -2.15312e+01
       H -8.45808e+00 -1.70228e+01 -2.18990e+01
       H -7.46244e+00 -1.79254e+01 -2.12232e+01
       O -7.66460e+00  1.87226e+01 -5.84009e+00
       H -7.22436e+00  1.95733e+01 -5.52095e+00
       H -8.59741e+00  1.89876e+01 -5.94152e+00
       O -1.39159e+01 -1.40933e+00 -5.69388e+00
       H -1.46689e+01 -1.62230e+00 -5.13643e+00
       H -1.42208e+01 -5.45924e-01 -6.02719e+00
       O -1.00413e+01 -1.11043e+01 -6.30597e-02
       H -1.01362e+01 -1.17210e+01  7.25429e-01
       H -1.03263e+01 -1.02143e+01  3.35312e-01
       O -3.25526e+00 -2.07035e+01 -2.58359e+01
       H -3.15422e+00 -1.97296e+01 -2.60310e+01
       H -2.37379e+00 -2.10005e+01 -2.59934e+01
       O  1.10966e+01 -2.49068e+00 -1.31549e+01
       H  1.09020e+01 -2.89791e+00 -1.22482e+01
       H  1.18786e+01 -2.01934e+00 -1.29503e+01
       O -1.40653e+01 -3.85387e+00  2.05599e+01
       H -1.30348e+01 -3.82973e+00  2.07177e+01
       H -1.41915e+01 -4.13259e+00  1.96441e+01
       O  2.67486e+01 -2.02054e+01  1.82169e+01
       H  2.73447e+01 -2.09812e+01  1.80698e+01
       H  2.69147e+01 -1.96832e+01  1.73977e+01
       O -2.48613e+01 -1.30861e+01  1.41074e+01
       H -2.53564e+01 -1.32432e+01  1.32485e+01
       H -2.51196e+01 -1.39275e+01  1.45731e+01
       O -1.19479e+01  2.33741e+01 -9.77004e+00
       H -1.11313e+01  2.35022e+01 -1.02674e+01
       H -1.23895e+01  2.27282e+01 -1.03469e+01
       O -1.77500e+01 -8.45191e+00  1.83218e+01
       H -1.76660e+01 -7.88132e+00  1.75540e+01
       H -1.86835e+01 -8.55129e+00  1.83165e+01
       O  2.23992e+01 -2.21675e+01  1.44184e+01
       H  2.28533e+01 -2.13573e+01  1.48178e+01
       H  2.29135e+01 -2.22291e+01  1.36038e+01
       O  1.14584e+01 -2.86605e+01 -1.61187e+01
       H  1.07375e+01 -2.83382e+01 -1.54900e+01
       H  1.17785e+01 -2.77220e+01 -1.64331e+01
       O -9.25109e+00 -1.62931e+01 -4.29892e+00
       H -1.01657e+01 -1.62470e+01 -4.05306e+00
       H -9.13537e+00 -1.71621e+01 -3.86478e+00
       O  8.79417e+00 -1.68206e+01 -1.66943e+00
       H  8.28111e+00 -1.76459e+01 -1.64612e+00
       H  9.06080e+00 -1.68209e+01 -7.83052e-01
       O -8.33882e+00  1.93911e+01 -2.42915e+01
       H -7.69192e+00  1.89741e+01  2.36993e+01
       H -8.50500e+00  1.89289e+01  2.23899e+01
       O  1.65254e+01 -1.42715e+01  2.26446e+01
       H  1.62347e+01 -1.49471e+01 -2.41578e+01
       H  1.59643e+01 -1.44601e+01 -2.55900e+01
       O  6.39218e-01  1.45098e+01  3.08706e+00
       H  3.73920e-01  1.54361e+01  3.22801e+00
       H  6.99185e-01  1.42426e+01  4.04686e+00
       O -1.22944e+01  2.19838e+01  1.85654e+01
       H -1.30199e+01  2.19279e+01  1.79240e+01
       H -1.16170e+01  2.15393e+01  1.80510e+01
       O  2.31871e+01 -5.19618e+00  3.85969e+01
       H  2.24714e+01 -5.07858e+00  3.79197e+01
       H  2.38612e+01 -5.52769e+00  3.80423e+01
       O  1.89495e+01 -1.19374e+01 -1.66631e+01
       H  1.96181e+01 -1.22107e+01 -1.60350e+01
       H  1.91492e+01 -1.25698e+01 -1.73550e+01
       O -5.40523e+00 -1.33491e+01 -1.66198e+01
       H -5.16157e+00 -1.24118e+01 -1.63985e+01
       H -6.29953e+00 -1.32778e+01 -1.69522e+01
       O -1.17454e+01 -1.62686e+01 -3.45184e+00
       H -1.14990e+01  3.09816e+01 -2.55884e+00
       H -1.22163e+01 -1.54560e+01 -3.27704e+00
       O  2.75592e+01 -4.66005e+00  2.30293e+01
       H  2.78921e+01 -4.56643e+00  2.21302e+01
       H  2.83265e+01 -4.52021e+00  2.35777e+01
       O -2.58858e+01  7.23447e+00 -2.81912e+00
       H -2.57730e+01  6.95150e+00 -1.90545e+00
       H -2.50901e+01  7.76524e+00 -2.94342e+00
       O  1.82205e+01 -9.63863e+00 -1.31003e+01
       H  1.83643e+01 -8.70193e+00 -1.31883e+01
       H  1.76713e+01 -9.60748e+00 -1.22639e+01
       O -1.24445e+01 -1.36094e+01  2.70607e+01
       H -1.27654e+01 -1.42163e+01  2.63597e+01
       H -1.32325e+01 -1.32285e+01  2.73038e+01
       O -1.53589e+01 -1.18998e+01 -1.77254e+00
       H -1.57628e+01 -1.19116e+01 -2.62846e+00
       H -1.60317e+01 -1.21978e+01 -1.14893e+00
       O  1.82314e+00 -2.20647e+01 -1.34007e+01
       H  1.36784e+00 -2.11887e+01 -1.33817e+01
       H  2.58046e+00 -2.17600e+01 -1.29615e+01
       O -1.97361e+01 -5.17387e+00 -1.29970e+01
       H -1.94725e+01 -5.76103e+00 -1.38339e+01
       H -1.95313e+01 -5.84905e+00 -1.23171e+01
       O -2.01745e+01 -2.09709e+01  2.28834e+01
       H -1.99996e+01 -2.19086e+01  2.31084e+01
       H -2.09147e+01 -2.09382e+01  2.23174e+01
       O  4.44947e+00 -3.03620e+01 -1.77623e+00
       H  4.66225e+00 -3.13012e+01 -1.70645e+00
       H  4.26149e+00 -3.02154e+01 -8.39472e-01
       O -1.20835e+01 -1.26410e+01  1.82775e+01
       H -1.12287e+01 -1.30457e+01  1.85153e+01
       H -1.24821e+01 -1.22266e+01  1.90584e+01
       O  1.46234e+00 -5.01665e+00 -1.11106e+01
       H  9.11650e-01 -4.79092e+00 -1.17685e+01
       H  1.92702e+00 -5.74097e+00 -1.15852e+01
       O -1.35737e+01 -9.47308e+00 -1.27562e+01
       H -1.45316e+01 -9.50769e+00 -1.25658e+01
       H -1.34300e+01 -1.03635e+01 -1.24539e+01
       O  1.81497e+01 -2.31566e+01 -1.20480e+01
       H  1.80331e+01 -2.31409e+01 -1.10761e+01
       H  1.75032e+01 -2.23957e+01 -1.21569e+01
       O -8.42269e+00 -2.15137e+01 -9.81113e+00
       H -8.40395e+00 -2.06852e+01 -9.21137e+00
       H -8.97180e+00 -2.11873e+01 -1.05858e+01
       O -1.63694e+01 -1.34447e+01 -1.75848e+01
       H -1.67822e+01 -1.41436e+01 -1.70544e+01
       H -1.71685e+01 -1.34068e+01 -1.81741e+01
       O  8.96396e-01 -2.44113e+01 -2.62068e+01
       H  2.49603e-01 -2.48111e+01 -2.56237e+01
       H  1.68619e+00 -2.44752e+01 -2.56845e+01
       O  1.52042e+01 -2.09016e+01 -1.85347e+01
       H  1.54755e+01 -2.13822e+01 -1.92997e+01
       H  1.43160e+01 -2.12832e+01 -1.82957e+01
       O  1.78707e+01  2.49714e+01  1.29867e+01
       H  1.86852e+01  2.44447e+01  1.28672e+01
       H  1.78456e+01  2.52856e+01  1.20590e+01
       O -1.00045e+01 -3.18662e+00 -1.17662e+01
       H -9.31464e+00 -2.96791e+00 -1.24811e+01
       H -1.02836e+01 -4.04521e+00 -1.21290e+01
       O -1.04436e+00 -3.58682e+01 -5.76392e+00
       H -1.28820e+00  1.16462e+01 -4.82676e+00
       H -4.72475e-01 -3.50722e+01 -5.80023e+00
       O -5.99921e+00 -1.48552e+01 -2.01720e+01
       H -5.40991e+00 -1.43457e+01 -2.08012e+01
       H -6.21518e+00 -1.56979e+01 -2.06513e+01
       O -1.88841e+01 -3.40614e+01  7.43925e+00
       H -1.96870e+01 -3.35021e+01  7.55103e+00
       H -1.82254e+01 -3.34101e+01  7.43824e+00
       O -1.12480e+00  9.72014e+00 -1.29409e+00
       H -1.78165e+00  9.05181e+00 -1.46922e+00
       H -3.60999e-01  9.10517e+00 -1.12822e+00
       O -2.15238e+01 -8.18783e+00 -7.73766e+00
       H -2.15084e+01 -7.64218e+00 -8.46331e+00
       H -2.06161e+01 -8.53520e+00 -7.56625e+00
       O  2.89340e+01 -1.21618e+01  1.18344e+01
       H  2.92660e+01 -1.16509e+01  1.25937e+01
       H  2.86920e+01 -1.30312e+01  1.21707e+01
       O -7.94672e+00 -1.48472e+01  4.04012e+00
       H -7.64429e+00 -1.57676e+01  3.75553e+00
       H -8.67911e+00 -1.47144e+01  3.49114e+00
       O  1.51929e+01 -1.73069e+01 -5.15634e+00
       H  1.61532e+01 -1.73293e+01 -4.91785e+00
       H  1.50579e+01  2.94224e+01 -5.78561e+00
       O -1.25271e+01  2.03854e+01  2.69805e+00
       H -1.32152e+01  1.98218e+01  2.25167e+00
       H -1.20730e+01  2.08216e+01  1.98690e+00
       O -2.70643e+00 -6.43363e+00 -2.49877e+01
       H -2.62898e+00 -7.34630e+00 -2.53103e+01
       H -2.11767e+00 -6.52040e+00 -2.41673e+01
       O  2.39256e+01 -1.87784e+01  2.25584e+01
       H  2.43397e+01 -1.79285e+01  2.24617e+01
       H  2.44572e+01 -1.92920e+01  2.19229e+01
       O  1.17506e+01  2.02814e+00 -1.55560e+00
       H  1.14598e+01  2.91597e+00 -1.38160e+00
       H  1.09523e+01  1.51669e+00 -1.39116e+00
       O  1.03694e+01 -1.28689e+01 -2.59776e+01
       H  9.86257e+00 -1.35548e+01 -2.55075e+01
       H  1.12816e+01 -1.31864e+01 -2.57153e+01
       O -9.88329e+00  2.67838e+01 -4.30341e+00
       H -9.85632e+00  2.60841e+01 -4.90796e+00
       H -1.06082e+01  2.72816e+01 -4.61071e+00
       O -3.93534e+00 -2.22693e+01 -1.92635e+01
       H -3.61754e+00 -2.13855e+01 -1.94480e+01
       H -4.89355e+00 -2.21574e+01 -1.91664e+01
       O  2.80102e+00 -5.18639e+00 -1.90443e+01
       H  3.64193e+00 -5.52996e+00 -1.85868e+01
       H  2.93557e+00 -5.60729e+00 -1.99141e+01
       O -3.51665e+00 -9.77669e+00  1.33476e+01
       H -4.17945e+00 -1.04153e+01  1.30364e+01
       H -4.14547e+00 -8.99867e+00  1.35224e+01
       O -8.86999e+00 -2.10374e+01 -2.73200e+01
       H -9.08024e+00 -2.20067e+01 -2.72116e+01
       H -8.07054e+00 -2.10955e+01 -2.67577e+01
       O  9.60069e+00 -1.92974e+00 -2.72087e+01
       H  8.86299e+00 -1.35633e+00 -2.70021e+01
       H  9.57701e+00 -2.18452e+00 -2.80848e+01
       O -1.17725e+01 -6.65385e+00  2.34737e+01
       H -1.16185e+01 -7.12965e+00  2.42879e+01
       H -1.21576e+01 -7.31859e+00  2.28702e+01
       O -8.58766e+00 -1.90188e+01 -8.49703e+00
       H -8.89012e+00 -1.86276e+01 -9.34934e+00
       H -8.80925e+00 -1.82032e+01 -7.97514e+00
       O -2.19328e+01 -8.76011e+00  2.71254e+01
       H -2.25058e+01 -8.97865e+00  2.78362e+01
       H -2.15876e+01 -7.87009e+00  2.74116e+01
       O  7.24926e+00 -1.02491e+01 -8.65439e+00
       H  7.21754e+00 -9.90576e+00 -9.53967e+00
       H  8.12735e+00 -1.06183e+01 -8.59072e+00
       O -7.39520e+00  3.01714e+00 -7.89944e+00
       H -6.62508e+00  2.56079e+00 -7.63746e+00
       H -7.17706e+00  3.94584e+00 -7.50670e+00
       O -2.08627e+00 -5.73442e-01 -3.00073e+01
       H -1.13483e+00 -5.89745e-01 -3.03337e+01
       H -2.31120e+00 -1.51902e+00 -2.99144e+01
       O -2.51536e+00 -1.67150e+01 -9.04852e+00
       H -2.04065e+00 -1.71266e+01 -8.31473e+00
       H -3.00921e+00 -1.74395e+01 -9.36170e+00
       O -3.66830e+00 -1.11067e+01 -2.28209e+01
       H -4.22069e+00 -1.10779e+01 -2.36690e+01
       H -3.48646e+00 -1.20714e+01 -2.26195e+01
       O -3.79113e+00 -7.80382e+00 -1.74650e+01
       H -2.86016e+00 -7.48542e+00 -1.72387e+01
       H -4.29751e+00 -7.42481e+00 -1.66891e+01
       O -8.12478e+00  2.32544e+01 -9.36129e+00
       H -8.33383e+00  2.41982e+01 -9.55834e+00
       H -8.69020e+00  2.31010e+01 -8.59354e+00
       O -2.47411e+00 -2.26777e+01 -7.23812e+00
       H -2.41216e+00 -2.21989e+01 -6.42254e+00
       H -2.67875e+00 -2.19414e+01 -7.80362e+00
       O -3.06620e+00  1.31600e+01 -1.04727e+01
       H -2.60866e+00  1.23771e+01 -1.06235e+01
       H -3.99424e+00  1.29161e+01 -1.03157e+01
       O -8.04470e+00 -2.01032e+01 -2.36923e+01
       H -7.79949e+00 -1.98658e+01 -2.27375e+01
       H -7.56448e+00 -1.94381e+01 -2.41829e+01
       O -2.43568e+01 -1.81989e+01 -1.46923e+01
       H -2.46310e+01 -1.73343e+01 -1.49865e+01
       H -2.39686e+01 -1.86495e+01 -1.55039e+01
       O -1.45330e+01 -2.00620e+01 -1.81675e+01
       H -1.37651e+01 -1.96864e+01 -1.85903e+01
       H -1.47055e+01 -2.07118e+01 -1.88734e+01
       O  1.21670e+01  2.46485e+01 -1.01244e+01
       H  1.29434e+01  2.51541e+01 -1.00334e+01
       H  1.17433e+01  2.46859e+01 -9.23020e+00
       O -8.93021e+00  2.41520e+01 -2.12478e+01
       H -8.42735e+00  2.33697e+01 -2.16368e+01
       H -9.81230e+00  2.40378e+01 -2.17087e+01
       O  2.37474e+01 -2.45104e+01  1.68437e+01
       H  2.39697e+01 -2.47091e+01  1.77848e+01
       H  2.45470e+01 -2.40625e+01  1.64886e+01
       O -5.33036e+00 -6.84518e+00 -2.19890e+01
       H -5.38899e+00 -6.85195e+00 -2.09945e+01
       H -4.54944e+00 -7.41492e+00 -2.21625e+01
       O  1.57641e+01  2.77662e+01 -6.95977e+00
       H  1.67041e+01  2.75982e+01 -7.03181e+00
       H  1.54276e+01  2.68684e+01 -6.85820e+00
       O -2.24222e+01 -1.04037e+01 -9.58960e+00
       H -2.20596e+01 -1.10048e+01 -8.89723e+00
       H -2.25157e+01 -9.59037e+00 -9.12547e+00
       O -2.84616e+01 -2.95838e+00 -2.84932e+00
       H -2.86031e+01 -2.62083e+00 -1.95218e+00
       H -2.81062e+01 -2.19998e+00 -3.27005e+00
       O -8.74704e+00 -9.02808e+00 -1.18706e+01
       H -8.93783e+00 -8.09151e+00 -1.20098e+01
       H -8.98426e+00 -9.45944e+00 -1.27047e+01
       O -1.04164e+01  1.09795e+01  1.44057e+01
       H -9.74218e+00  1.04150e+01  1.39358e+01
       H -1.03208e+01  1.06954e+01  1.53062e+01
       O  3.63684e+00  2.31711e+01 -4.93929e+00
       H  3.43887e+00 -2.50459e+01 -4.40082e+00
       H  2.99728e+00  2.37717e+01 -4.67120e+00
       O -2.02865e+01 -1.18466e+01 -1.10452e+01
       H -2.01521e+01 -1.24620e+01 -1.03193e+01
       H -2.09393e+01 -1.12317e+01 -1.06166e+01
       O -1.95949e+01  1.67020e+01 -1.27059e+01
       H -1.92093e+01  1.58278e+01 -1.28208e+01
       H -1.90183e+01  1.73847e+01 -1.31306e+01
       O -1.94976e+01 -1.32692e+01 -8.92761e+00
       H -1.98744e+01 -1.41033e+01 -9.24636e+00
       H -1.85414e+01 -1.34944e+01 -8.73765e+00
       O -5.26719e+00 -6.45536e+00 -1.52931e+01
       H -5.01598e+00 -6.00343e+00 -1.44845e+01
       H -5.94578e+00 -5.75124e+00 -1.55374e+01
       O -6.50107e+00 -1.13543e+01 -2.14573e+01
       H -7.08461e+00 -1.13409e+01 -2.22088e+01
       H -5.65719e+00 -1.14017e+01 -2.19212e+01
       O -4.23801e+00 -2.46788e+01 -1.70563e+01
       H -3.86759e+00 -2.38739e+01 -1.66465e+01
       H -3.44535e+00 -2.51356e+01 -1.73790e+01
       O  1.70549e+01 -1.59276e+01 -1.21929e+01
       H  1.76699e+01 -1.65016e+01 -1.17278e+01
       H  1.70520e+01 -1.61739e+01 -1.31500e+01
       O -1.02760e+01 -8.54598e+00 -2.21240e+01
       H -1.02087e+01 -8.02005e+00 -2.12837e+01
       H -1.07988e+01 -9.31883e+00 -2.17975e+01
       O -2.69185e+01 -9.58905e+00 -1.73739e+01
       H -2.78321e+01 -9.85783e+00 -1.76351e+01
       H -2.65418e+01 -1.04332e+01 -1.70278e+01
       O -3.48065e+00 -1.08586e+01 -6.82655e+00
       H -3.72647e+00 -1.02761e+01 -7.48887e+00