6
# CELL(abcABC): 1000.00000  1000.00000  1000.00000    90.00000    90.00000    90.00000  Step:         789  Bead:       0 positions{angstrom}  cell{angstrom}
       C -1.30454e+00  2.36222e+00  3.65381e-01
       H -1.26980e+00  1.65333e+00 -3.81472e-01
       H -4.48607e-01  2.13418e+00  1.04274e+00
       H -2.25502e+00  2.37600e+00  8.97162e-01
       O -9.82847e-01  3.58733e+00 -3.18582e-01
       H -1.39060e+00  3.58597e+00 -1.16906e+00
