14
# CELL(abcABC): 1000.00000  1000.00000  1000.00000    90.00000    90.00000    90.00000  Step:         109  Bead:       0 positions{angstrom}  cell{angstrom}
       C -6.13981e-01  6.65134e-01  1.27968e-01
       C  5.48867e-02 -6.30744e-01  7.40263e-01
       C -1.69478e+00  4.39419e-01 -9.85386e-01
       C -8.28754e-01  1.78911e+00  1.11614e+00
       H -1.56769e+00  1.68881e+00  1.90390e+00
       H -1.02708e+00  2.73876e+00  5.88226e-01
       H  1.16196e-01  1.88405e+00  1.68161e+00
       H -1.23541e+00 -1.61333e-01 -1.71418e+00
       H -1.96087e+00  1.38523e+00 -1.41400e+00
       H -2.54048e+00 -1.10908e-01 -5.57487e-01
       H  1.19585e+00 -4.50015e-01  1.07178e+00
       H -8.04892e-02 -1.48848e+00  4.90451e-02
       H -4.76016e-01 -9.05244e-01  1.62574e+00
       H  1.41050e-01  9.32133e-01 -8.42012e-01
