4
# CELL(abcABC): 1000.00000  1000.00000  1000.00000    90.00000    90.00000    90.00000  Step:         733  Bead:       0 positions{angstrom}  cell{angstrom}
       O -3.13938e+00  1.06424e+00  3.68432e-01
       H -4.00814e+00  7.41412e-01  1.46635e-01
       H -2.56199e+00  3.43093e-01  2.00430e-01
       H -2.98314e+00  2.09288e+00  4.90332e-01
