11115
# CELL(abcABC):   47.66706    47.66706    47.66706    90.00000    90.00000    90.00000  Step:       10000  Bead:       0 positions{angstrom}  cell{angstrom}
       C  8.32251e+00  5.45673e+00  6.18241e+00
       H  7.78451e+00  6.39443e+00  5.87281e+00
       H  9.34555e+00  5.53421e+00  6.28268e+00
       H  7.98818e+00  5.04935e+00  7.18044e+00
       C  8.08220e+00  4.47593e+00  5.09197e+00
       O  6.95004e+00  4.05608e+00  4.81440e+00
       N  9.17335e+00  4.15871e+00  4.46726e+00
       H  1.00893e+01  4.48072e+00  4.81039e+00
       C  9.13887e+00  3.37388e+00  3.22145e+00
       H  8.17240e+00  3.55092e+00  2.84356e+00
       C  1.01050e+01  3.96560e+00  2.23770e+00
       H  1.10558e+01  3.60775e+00  2.44216e+00
       H  1.01576e+01  5.07570e+00  2.42572e+00
       C  9.81416e+00  3.91147e+00  7.77971e-01
       O  1.06618e+01  4.38324e+00  1.21972e-02
       O  8.73677e+00  3.44066e+00  3.66786e-01
       H  8.47077e+00  3.49294e+00 -6.67551e-01
       C  9.28978e+00  1.82201e+00  3.26766e+00
       O  9.20813e+00  1.18205e+00  2.20145e+00
       N  9.49568e+00  1.31110e+00  4.47714e+00
       H  9.44582e+00  3.26635e-01  4.67795e+00
       H  9.49332e+00  1.93168e+00  5.21206e+00
       O -2.12088e+01 -9.54802e+00 -9.75206e+00
       H -2.08169e+01 -8.75182e+00 -1.01538e+01
       H -2.12813e+01 -1.00331e+01 -1.05902e+01
       O -3.69526e+01 -2.45277e+01 -2.94318e+01
       H -3.66004e+01 -2.54459e+01 -2.96149e+01
       H -3.69030e+01 -2.46356e+01 -2.84312e+01
       O -9.44499e+00 -9.72535e+00  1.72315e+00
       H -9.22023e+00 -8.81780e+00  1.46081e+00
       H -9.04627e+00 -1.01052e+01  8.83667e-01
       O -2.54106e+01 -3.50606e+01 -1.23991e+01
       H -2.47418e+01 -3.47433e+01 -1.17868e+01
       H -2.48964e+01 -3.58756e+01 -1.26506e+01
       O -3.07250e+01 -2.43381e+01  4.05259e+00
       H -2.98260e+01 -2.45746e+01  4.33769e+00
       H -3.07590e+01 -2.34226e+01  3.83896e+00
       O -2.44083e+01 -2.94614e+01 -1.76184e+01
       H -2.35840e+01 -2.93641e+01 -1.71559e+01
       H -2.41200e+01 -3.02343e+01 -1.80538e+01
       O -2.77813e+01 -3.16819e+01 -1.63826e+01
       H -2.74779e+01 -3.20255e+01 -1.72448e+01
       H -2.72004e+01 -3.21337e+01 -1.57918e+01
       O -1.99138e+01 -1.20391e+01 -1.93543e+01
       H -1.91254e+01 -1.19592e+01 -1.99219e+01
       H -2.05768e+01 -1.15650e+01 -1.98431e+01
       O -1.49009e+01 -3.16336e+01 -2.45237e+01
       H -1.39798e+01 -3.13096e+01 -2.46657e+01
       H -1.47748e+01 -3.21978e+01 -2.37129e+01
       O  4.19925e-01 -3.62030e+01  1.31186e+00
       H  9.73863e-01 -3.54607e+01  1.06359e+00
       H -4.30187e-01 -3.58746e+01  8.60673e-01
       O -1.71476e+01 -5.87541e+00 -2.27271e+01
       H -1.68822e+01 -5.63868e+00 -2.36330e+01
       H -1.68622e+01 -6.81199e+00 -2.27085e+01
       O -2.79366e+00  1.24432e+01 -6.56003e+00
       H -3.56162e+00  1.18318e+01 -6.59917e+00
       H -2.07948e+00  1.17429e+01 -6.38898e+00
       O -1.28262e+01 -2.97152e+01 -2.43875e+01
       H -1.30523e+01 -2.94423e+01 -2.34678e+01
       H -1.19177e+01 -2.94941e+01 -2.44355e+01
       O -2.11014e+01 -1.35065e+01 -8.73475e+00
       H -2.19250e+01 -1.30721e+01 -9.14997e+00
       H -2.08587e+01 -1.28217e+01 -8.05054e+00
       O -3.70945e+01 -2.91150e+01 -4.47566e+01
       H -3.72722e+01 -3.00585e+01 -4.44320e+01
       H -3.67948e+01 -2.87310e+01 -4.39256e+01
       O -1.78509e+01 -1.64979e+01 -1.81135e+01
       H -1.75483e+01 -1.73264e+01 -1.85576e+01
       H -1.72290e+01 -1.63200e+01 -1.74582e+01
       O -3.31910e+01 -3.49830e+01  1.28004e+01
       H -3.24157e+01 -3.50343e+01  1.34411e+01
       H -3.28202e+01 -3.52249e+01  1.19250e+01
       O -1.44917e+01  3.95707e-01 -3.28406e+01
       H -1.49441e+01  4.82360e-01 -3.20242e+01
       H -1.48035e+01  1.24206e+00 -3.33495e+01
       O -2.61864e+01 -1.88785e+01  1.21973e+01
       H -2.70083e+01 -1.91618e+01  1.17193e+01
       H -2.55041e+01 -1.95465e+01  1.19533e+01
       O -3.49685e+01  1.16612e+01 -4.02035e+01
       H -3.41902e+01  1.11450e+01 -4.04192e+01
       H -3.55618e+01  1.09161e+01 -4.02094e+01
       O -4.89276e+00 -3.31647e+01 -1.71839e+01
       H -5.26331e+00 -3.37629e+01 -1.64541e+01
       H -4.92494e+00 -3.23161e+01 -1.67330e+01
       O -4.08406e+01 -4.18283e+00 -2.88246e+01
       H -4.08266e+01 -3.31973e+00 -2.91995e+01
       H -3.98456e+01 -4.37780e+00 -2.90001e+01
       O  1.82572e+00 -6.87346e+00 -8.53349e+00
       H  2.17385e+00 -5.91807e+00 -8.56018e+00
       H  1.00012e+00 -6.81756e+00 -8.95669e+00
       O -2.82772e+01 -1.62584e+01 -1.71588e+01
       H -2.82451e+01 -1.70032e+01 -1.65783e+01
       H -2.77573e+01 -1.55417e+01 -1.67226e+01
       O -1.25926e+01 -3.72386e+01 -3.67315e+01
       H -1.34381e+01 -3.67410e+01 -3.64401e+01
       H -1.29089e+01 -3.81955e+01 -3.66734e+01
       O -9.35216e+00 -4.49535e+00 -2.83863e+01
       H -8.94169e+00 -3.92162e+00 -2.90348e+01
       H -9.91521e+00 -3.88260e+00 -2.78643e+01
       O -1.10898e+01  2.29508e+01 -1.05273e+01
       H -1.05222e+01  2.29602e+01 -9.74615e+00
       H -1.05346e+01  2.26616e+01 -1.12093e+01
       O -1.26127e+01 -6.09141e+00  9.67150e+00
       H -1.32965e+01 -6.70032e+00  1.00378e+01
       H -1.19296e+01 -5.97486e+00  1.03974e+01
       O -1.07032e+01 -1.00901e+01 -1.37373e+01
       H -1.01725e+01 -9.97598e+00 -1.29546e+01
       H -1.15153e+01 -9.68137e+00 -1.33416e+01
       O -1.34605e+01 -1.74067e+01 -5.75355e+00
       H -1.28193e+01 -1.68029e+01 -5.35219e+00
       H -1.39094e+01 -1.76865e+01 -4.93357e+00
       O  1.78753e+01  9.23729e+00 -4.51089e+01
       H  1.76253e+01  8.76084e+00 -4.43282e+01
       H  1.85865e+01  8.59221e+00 -4.54505e+01
       O  1.06774e+01 -2.33990e+01 -2.00920e+01
       H  1.06827e+01 -2.24522e+01 -2.00721e+01
       H  1.14559e+01 -2.36706e+01 -2.06525e+01
       O  3.91253e+00 -2.20616e+00 -9.49101e-01
       H  4.21202e+00 -1.83273e+00 -1.24213e-01
       H  4.75661e+00 -2.53990e+00 -1.30811e+00
       O -3.51344e+01 -2.18296e+01  5.66481e-01
       H -3.49160e+01 -2.18232e+01  1.52711e+00
       H -3.43360e+01 -2.23070e+01  2.96516e-01
       O -7.86081e+00 -1.74113e+01 -1.71492e+01
       H -7.43851e+00 -1.82741e+01 -1.68835e+01
       H -7.22478e+00 -1.71530e+01 -1.78577e+01
       O -1.03311e+01 -2.47706e+01 -3.29695e+01
       H -9.61801e+00 -2.49142e+01 -3.23564e+01
       H -1.11783e+01 -2.46399e+01 -3.23619e+01
       O -1.34569e+01 -2.75132e+01 -1.60377e-01
       H -1.32853e+01 -2.80103e+01 -1.00858e+00
       H -1.41420e+01 -2.69518e+01 -5.58414e-01
       O -1.64263e+01 -3.70042e+01 -1.92251e+01
       H -1.60337e+01 -3.75335e+01 -1.99335e+01
       H -1.55636e+01 -3.66624e+01 -1.88224e+01
       O -8.26498e+00 -6.46519e+00  3.30786e+00
       H -7.34510e+00 -6.77392e+00  3.10567e+00
       H -8.24151e+00 -5.78730e+00  2.58855e+00
       O  1.45179e+01 -1.29022e+00 -4.24297e+01
       H  1.42398e+01 -1.14545e+00 -4.15131e+01
       H  1.36419e+01 -1.46570e+00 -4.28138e+01
       O -3.83672e+00 -3.04425e+01 -2.79980e+01
       H -4.23364e+00 -3.07212e+01 -2.71196e+01
       H -2.96783e+00 -3.09316e+01 -2.79374e+01
       O -3.66572e+01 -1.31126e+01 -5.74778e+00
       H -3.73058e+01 -1.23796e+01 -5.91634e+00
       H -3.71289e+01 -1.38809e+01 -6.21242e+00
       O  8.57586e+00 -1.40836e+01 -2.01541e+01
       H  8.47135e+00 -1.30310e+01 -2.01260e+01
       H  9.31589e+00 -1.40969e+01 -2.07713e+01
       O -2.14118e+01 -5.08593e+01 -3.38505e+01
       H -2.18117e+01 -5.14606e+01 -3.32573e+01
       H -2.05774e+01 -5.13238e+01 -3.40575e+01
       O -1.58779e+01 -4.56256e+00 -4.76044e+01
       H -1.63826e+01 -3.76574e+00 -4.76462e+01
       H -1.54794e+01 -4.46992e+00 -4.67136e+01
       O -1.19726e+01  5.68529e+00 -4.01102e+01
       H -1.22213e+01  6.62479e+00 -4.03061e+01
       H -1.24055e+01  5.18288e+00 -4.07775e+01
       O -5.61348e+01 -2.73247e+01 -7.94103e+00
       H -5.62836e+01 -2.63175e+01 -7.98647e+00
       H -5.53372e+01 -2.75390e+01 -8.55010e+00
       O -3.37109e+01 -1.46348e+01 -8.26730e+00
       H -3.41538e+01 -1.44557e+01 -7.43148e+00
       H -3.28228e+01 -1.47920e+01 -7.98648e+00
       O -2.22745e+01 -2.26465e+01 -2.06402e+01
       H -2.14041e+01 -2.24990e+01 -2.02213e+01
       H -2.24251e+01 -2.17343e+01 -2.08914e+01
       O  8.02156e+00 -1.10467e+00  1.42730e+00
       H  8.53381e+00 -5.63712e-01  2.12659e+00
       H  8.07263e+00 -3.59119e-01  7.72582e-01
       O  1.16423e+00  7.65993e+00  6.71125e+00
       H  1.22675e+00  8.66243e+00  6.90407e+00
       H  1.69125e+00  7.56310e+00  5.84513e+00
       O -2.99757e+00 -3.56609e+00 -9.18244e-01
       H -3.48162e+00 -4.43151e+00 -8.72008e-01
       H -2.26157e+00 -3.94759e+00 -1.48766e+00
       O -1.28409e+01 -5.39948e+00 -1.14763e+01
       H -1.32177e+01 -4.40705e+00 -1.13901e+01
       H -1.24776e+01 -5.33478e+00 -1.23828e+01
       O -5.07577e+00  2.01382e+01 -2.42634e+01
       H -6.04722e+00  2.02987e+01 -2.41960e+01
       H -5.05298e+00  1.91898e+01 -2.43271e+01
       O -1.95982e+01 -5.53127e+00 -7.09156e+00
       H -2.00075e+01 -5.39714e+00 -7.95161e+00
       H -1.86882e+01 -5.76511e+00 -7.30006e+00
       O -7.36184e+00 -3.74198e+01 -3.31443e+01
       H -7.72737e+00 -3.76565e+01 -3.40433e+01
       H -6.45357e+00 -3.74407e+01 -3.33910e+01
       O -1.61517e+01 -2.28186e+01 -1.15285e+01
       H -1.54211e+01 -2.32167e+01 -1.10378e+01
       H -1.61483e+01 -2.32878e+01 -1.24148e+01
       O -2.08570e+01 -4.29588e+01 -6.85942e+00
       H -2.01184e+01 -4.35285e+01 -7.17085e+00
       H -2.16408e+01 -4.35598e+01 -6.99825e+00
       O  6.28591e+00 -4.99671e-01 -6.17629e+00
       H  6.95341e+00 -1.06760e+00 -6.53959e+00
       H  5.54638e+00 -7.93906e-01 -6.60132e+00
       O -4.08808e+00 -2.52538e+01 -3.58331e+01
       H -4.45291e+00 -2.48075e+01 -3.65643e+01
       H -3.16373e+00 -2.49173e+01 -3.59457e+01
       O  9.59330e+00 -1.13217e+00 -2.09084e+01
       H  9.08830e+00 -6.57068e-01 -2.15811e+01
       H  9.36322e+00 -2.09725e+00 -2.11048e+01
       O -4.33480e+01 -1.95489e+01 -1.05607e+01
       H -4.26874e+01 -2.01372e+01 -1.09176e+01
       H -4.29232e+01 -1.92648e+01 -9.75106e+00
       O -1.31874e+01 -4.88851e+01 -2.18421e+01
       H -1.40674e+01 -4.94341e+01 -2.17677e+01
       H -1.31123e+01 -4.88814e+01 -2.27781e+01
       O -1.68542e+01 -2.54237e+01 -8.87561e+00
       H -1.71761e+01 -2.45965e+01 -8.36887e+00
       H -1.64090e+01 -2.58950e+01 -8.10005e+00
       O  6.98943e+00 -2.27160e+01 -1.86874e+01
       H  7.67936e+00 -2.27967e+01 -1.93380e+01
       H  7.35544e+00 -2.19405e+01 -1.81673e+01
       O -2.37951e+01 -4.28935e+01 -1.99087e+01
       H -2.38534e+01 -4.21813e+01 -2.05638e+01
       H -2.47995e+01 -4.31022e+01 -1.99470e+01
       O -3.71655e+01 -1.36128e+01 -2.22047e+01
       H -3.66034e+01 -1.43487e+01 -2.22929e+01
       H -3.80303e+01 -1.38631e+01 -2.26506e+01
       O -2.04403e+01 -1.83589e+01 -3.29479e+01
       H -1.99961e+01 -1.88781e+01 -3.36020e+01
       H -1.98044e+01 -1.77187e+01 -3.27211e+01
       O -2.27248e+01  7.05589e+00 -1.76509e+01
       H -2.18098e+01  6.73309e+00 -1.74039e+01
       H -2.27769e+01  6.65131e+00 -1.85400e+01
       O -2.29154e+01 -1.13479e+01 -1.34844e+01
       H -2.27087e+01 -1.11482e+01 -1.44175e+01
       H -2.23009e+01 -1.07560e+01 -1.30773e+01
       O -1.82705e+01 -2.74332e+01  9.02183e+00
       H -1.87169e+01 -2.69216e+01  8.36917e+00
       H -1.84935e+01 -2.69313e+01  9.85150e+00
       O  3.45693e+00 -1.15645e+01  1.89278e+00
       H  4.02169e+00 -1.13656e+01  2.70191e+00
       H  2.76050e+00 -1.09659e+01  2.08121e+00
       O -1.37050e+01 -2.44058e+01 -3.60427e+01
       H -1.28060e+01 -2.45531e+01 -3.59893e+01
       H -1.40223e+01 -2.50957e+01 -3.66644e+01
       O -1.08295e+01 -2.36039e+01 -3.55104e+01
       H -1.12734e+01 -2.27554e+01 -3.52326e+01
       H -1.05129e+01 -2.38209e+01 -3.46082e+01
       O -2.91138e+01 -3.97529e+01  1.06922e+01
       H -2.96232e+01 -4.02611e+01  1.13047e+01
       H -2.92813e+01 -4.03511e+01  9.91801e+00
       O -2.60893e+01 -2.46573e+01 -2.87950e+01
       H -2.54718e+01 -2.52053e+01 -2.83239e+01
       H -2.59381e+01 -2.38431e+01 -2.82738e+01
       O -8.13346e+00 -1.59577e+01  1.73560e+01
       H -7.18825e+00 -1.59311e+01  1.76694e+01
       H -8.40731e+00 -1.65141e+01  1.80749e+01
       O -4.02876e+01 -5.33107e+00 -2.82191e+00
       H -4.01642e+01 -5.47063e+00 -1.86839e+00
       H -3.93388e+01 -5.33750e+00 -3.02871e+00
       O -1.48603e+01 -2.83858e+01 -7.69872e+00
       H -1.52969e+01 -2.77129e+01 -7.14727e+00
       H -1.41820e+01 -2.78710e+01 -8.14601e+00
       O -2.29517e+01 -2.16777e+01 -2.46465e+01
       H -2.24271e+01 -2.23976e+01 -2.44407e+01
       H -2.23573e+01 -2.09873e+01 -2.43952e+01
       O -6.96421e+00 -1.38954e+01 -2.16689e+01
       H -6.45272e+00 -1.35899e+01 -2.08914e+01
       H -6.35598e+00 -1.37004e+01 -2.24433e+01
       O -8.36929e+00 -1.94702e+01 -1.36139e+01
       H -8.73956e+00 -2.00330e+01 -1.29012e+01
       H -7.65355e+00 -1.99625e+01 -1.38410e+01
       O -3.24117e+01  1.82055e+01 -1.62419e+01
       H -3.27735e+01  1.76848e+01 -1.55123e+01
       H -3.14114e+01  1.80216e+01 -1.60689e+01
       O -2.42569e+00 -1.95239e+01 -2.37589e+01
       H -3.38457e+00 -1.96914e+01 -2.40430e+01
       H -2.25623e+00 -1.85532e+01 -2.40743e+01
       O -8.21448e+00 -2.96822e+01 -4.75091e+01
       H -8.67663e+00 -3.01454e+01 -4.67020e+01
       H -8.99456e+00 -2.92554e+01 -4.78053e+01
       O -1.41277e+01 -2.04500e+01 -1.72338e+01
       H -1.35189e+01 -2.05866e+01 -1.65100e+01
       H -1.36019e+01 -2.08555e+01 -1.78790e+01
       O -9.24706e+00  4.01360e+00 -1.65799e+01
       H -9.81995e+00  4.61454e+00 -1.61100e+01
       H -9.41680e+00  3.22247e+00 -1.60558e+01
       O -1.14464e+01 -2.84062e+01 -4.11747e+01
       H -1.17944e+01 -2.90604e+01 -4.17751e+01
       H -1.11740e+01 -2.90544e+01 -4.04722e+01
       O -4.39477e+01 -2.80688e+01 -8.21187e+00
       H -4.29677e+01 -2.77852e+01 -8.16689e+00
       H -4.39189e+01 -2.87862e+01 -8.85453e+00
       O -2.13834e+01 -1.71044e+01  1.12514e+01
       H -2.19868e+01 -1.63451e+01  1.11702e+01
       H -2.10756e+01 -1.69406e+01  1.21765e+01
       O  2.39956e+00  3.92836e+00  1.18173e+00
       H  1.53497e+00  4.26655e+00  1.51204e+00
       H  2.83719e+00  4.11521e+00  2.01775e+00
       O -2.62070e+01 -2.88409e+01 -1.55404e+01
       H -2.62157e+01 -2.79913e+01 -1.59835e+01
       H -2.59541e+01 -2.93388e+01 -1.63505e+01
       O  3.73023e+00 -8.12655e+00  1.18791e+01
       H  3.15346e+00 -8.01203e+00  1.11161e+01
       H  3.72741e+00 -7.25479e+00  1.23832e+01
       O -1.03895e+01 -8.95343e+00 -6.96984e+00
       H -1.03348e+01 -8.22782e+00 -7.62054e+00
       H -9.70193e+00 -9.52830e+00 -7.28241e+00
       O  1.55594e+01  1.23083e+01  5.37206e+00
       H  1.52600e+01  1.18669e+01  4.57522e+00
       H  1.55422e+01  1.16261e+01  6.08307e+00
       O -8.92351e+00 -4.01752e+00 -3.27493e+01
       H -8.54377e+00 -3.18640e+00 -3.31675e+01
       H -9.88240e+00 -3.81819e+00 -3.25883e+01
       O -7.88138e+00 -1.10961e+01 -3.43451e+01
       H -7.11861e+00 -1.08198e+01 -3.38144e+01
       H -8.53865e+00 -1.10321e+01 -3.37177e+01
       O -1.86818e+01 -8.42443e+00 -2.17291e+01
       H -1.94174e+01 -8.57386e+00 -2.11503e+01
       H -1.90569e+01 -8.77044e+00 -2.25699e+01
       O -2.35150e+01 -2.68662e+01 -4.06489e+01
       H -2.26082e+01 -2.70598e+01 -4.03236e+01
       H -2.34603e+01 -2.59278e+01 -4.04093e+01
       O -8.06567e+00  3.24467e+00  7.85369e+00
       H -7.51998e+00  3.16472e+00  7.09966e+00
       H -8.46338e+00  2.36337e+00  7.95992e+00
       O -1.94007e+01 -2.42257e+01 -1.52226e+01
       H -1.95097e+01 -2.51709e+01 -1.50418e+01
       H -1.86167e+01 -2.42834e+01 -1.58101e+01
       O  6.51066e+00 -7.96047e+00 -1.57333e+01
       H  6.20082e+00 -7.12014e+00 -1.53357e+01
       H  7.06438e+00 -7.70863e+00 -1.64831e+01
       O  2.62764e+00 -1.72658e+01 -5.15196e+00
       H  2.63571e+00 -1.78121e+01 -4.32600e+00
       H  2.16975e+00 -1.64883e+01 -4.78083e+00
       O  1.96798e+01  1.71254e+01 -2.16683e+01
       H  1.87815e+01  1.72176e+01 -2.13301e+01
       H  2.01746e+01  1.72814e+01 -2.08975e+01
       O -1.51839e+01 -1.98237e+01 -6.76100e+00
       H -1.55637e+01 -1.96382e+01 -5.91179e+00
       H -1.50382e+01 -1.89183e+01 -7.13592e+00
       O -2.11388e+01 -3.89688e+01 -1.89978e+00
       H -2.11224e+01 -3.91196e+01 -2.88438e+00
       H -2.07368e+01 -3.97684e+01 -1.61627e+00
       O -8.55559e+00 -3.64999e+01 -1.53894e+01
       H -8.17625e+00 -3.73766e+01 -1.51642e+01
       H -9.12345e+00 -3.64095e+01 -1.45338e+01
       O -1.63142e+00 -2.59214e+01 -1.41469e+01
       H -2.15180e+00 -2.67456e+01 -1.42869e+01
       H -1.18724e+00 -2.58238e+01 -1.50262e+01
       O -2.83879e+01 -3.53404e+00 -2.46859e+01
       H -2.78684e+01 -3.22564e+00 -2.39067e+01
       H -2.92992e+01 -3.29188e+00 -2.44326e+01
       O -1.80934e+01 -3.20354e+01 -2.16426e+01
       H -1.85683e+01 -3.28986e+01 -2.18948e+01
       H -1.87712e+01 -3.14483e+01 -2.12620e+01
       O -1.51589e+01 -7.30406e+00 -4.99156e+00
       H -1.46500e+01 -7.48345e+00 -4.25669e+00
       H -1.44334e+01 -7.41534e+00 -5.62468e+00
       O -1.75517e+01 -5.29752e+01 -5.00609e+01
       H -1.78769e+01 -5.38484e+01 -5.00185e+01
       H -1.71726e+01 -5.27022e+01 -4.92087e+01
       O -9.28233e+00 -2.35214e+01 -1.50944e+01
       H -9.25061e+00 -2.44483e+01 -1.52784e+01
       H -1.01608e+01 -2.33960e+01 -1.47683e+01
       O -1.56760e+01 -3.23393e+01 -1.14039e+01
       H -1.60509e+01 -3.20560e+01 -1.22335e+01
       H -1.48083e+01 -3.28615e+01 -1.16097e+01
       O -1.22848e+01 -8.72113e+00 -1.61154e+01
       H -1.26092e+01 -8.79289e+00 -1.52051e+01
       H -1.21132e+01 -9.64770e+00 -1.62704e+01
       O -2.56949e+01 -1.47029e+01 -1.74805e+01
       H -2.64205e+01 -1.42207e+01 -1.69957e+01
       H -2.49575e+01 -1.43591e+01 -1.70363e+01
       O -9.04746e+00 -1.50497e+01  2.44694e-01
       H -9.77841e+00 -1.46415e+01  7.17474e-01
       H -9.01595e+00 -1.59420e+01  6.02383e-01
       O -7.96995e+00 -2.30274e+01 -5.12374e+01
       H -7.32397e+00 -2.28883e+01 -5.19957e+01
       H -7.43448e+00 -2.27700e+01 -5.04685e+01
       O -6.61972e+00 -2.16768e+01 -1.47118e+01
       H -5.85462e+00 -2.14174e+01 -1.41830e+01
       H -6.32917e+00 -2.25518e+01 -1.49263e+01
       O -2.43303e+01 -2.35293e+01 -6.71218e+00
       H -2.49915e+01 -2.31206e+01 -7.32110e+00
       H -2.37949e+01 -2.27260e+01 -6.56060e+00
       O -2.62089e+01 -1.10014e+01 -2.31919e+01
       H -2.55841e+01 -1.17283e+01 -2.29523e+01
       H -2.70211e+01 -1.13766e+01 -2.27578e+01
       O  3.38586e+00 -7.12115e+00 -2.81199e+01
       H  2.67398e+00 -7.60739e+00 -2.85401e+01
       H  3.08856e+00 -7.14651e+00 -2.71183e+01
       O -3.70864e+00 -1.26958e+00  1.70374e+01
       H -3.30095e+00 -1.02459e+00  1.78765e+01
       H -3.74258e+00 -3.98561e-01  1.65687e+01
       O -2.54491e+01 -2.67327e+01  1.31752e+01
       H -2.59716e+01 -2.74977e+01  1.33965e+01
       H -2.45629e+01 -2.71683e+01  1.31832e+01
       O -2.98534e+01 -1.97066e+00 -4.74945e+00
       H -3.02738e+01 -2.25415e+00 -5.62372e+00
       H -3.00001e+01 -1.02425e+00 -4.79217e+00
       O -4.54118e+01 -1.77830e+01 -1.06157e+01
       H -4.50246e+01 -1.69327e+01 -1.08603e+01
       H -4.46170e+01 -1.83753e+01 -1.07640e+01
       O  8.95994e+00 -4.73487e+00  4.99087e+00
       H  8.46963e+00 -5.29056e+00  5.69741e+00
       H  8.22434e+00 -4.25237e+00  4.64928e+00
       O -2.79856e+01 -2.27936e+00 -5.56700e+01
       H -2.70544e+01 -2.78589e+00 -5.56102e+01
       H -2.76500e+01 -1.41184e+00 -5.54102e+01
       O -7.58692e+00 -2.27732e+01 -1.25432e+01
       H -7.10494e+00 -2.23344e+01 -1.33013e+01
       H -8.46635e+00 -2.25007e+01 -1.27243e+01
       O -2.57958e+00 -1.28999e+01 -3.27692e+01
       H -2.96372e+00 -1.21081e+01 -3.22789e+01
       H -2.13909e+00 -1.24226e+01 -3.34904e+01
       O -5.55070e+01 -1.82126e+01 -1.93003e+00
       H -5.51494e+01 -1.84205e+01 -1.05167e+00
       H -5.57761e+01 -1.91610e+01 -2.15833e+00
       O  3.38117e-01 -1.16363e+01  8.42609e+00
       H  5.51586e-01 -1.11804e+01  9.29960e+00
       H -1.60147e-01 -1.09199e+01  7.98683e+00
       O -8.22730e+00 -4.08634e+00  2.96040e+01
       H -8.84016e+00 -3.39721e+00  2.92253e+01
       H -7.48293e+00 -3.54718e+00  2.96842e+01
       O -1.65892e+01 -3.88252e+01 -4.18008e+01
       H -1.74768e+01 -3.86684e+01 -4.21242e+01
       H -1.66435e+01 -3.84782e+01 -4.08970e+01
       O -1.32403e+01 -1.44957e+01 -8.19233e+00
       H -1.27715e+01 -1.49480e+01 -8.95444e+00
       H -1.26215e+01 -1.38196e+01 -7.84312e+00
       O -1.60702e+01 -1.11935e+01  8.14226e+00
       H -1.51327e+01 -1.14419e+01  8.09079e+00
       H -1.61786e+01 -1.16363e+01  8.96010e+00
       O -1.78078e+01 -3.05712e+00 -7.97766e+00
       H -1.86558e+01 -2.59404e+00 -7.80531e+00
       H -1.79074e+01 -3.97077e+00 -7.62897e+00
       O -3.47179e+01 -7.39793e-01 -2.01818e+00
       H -3.51590e+01 -5.81637e-01 -1.13821e+00
       H -3.50308e+01 -2.36066e-02 -2.61323e+00
       O -1.89747e+01 -1.90494e+01 -3.52283e+01
       H -1.86931e+01 -1.88435e+01 -3.60973e+01
       H -1.81269e+01 -1.91029e+01 -3.48526e+01
       O -1.36608e+01 -7.05379e+00  2.69018e+00
       H -1.34104e+01 -7.36078e+00  3.52236e+00
       H -1.32688e+01 -6.13648e+00  2.72770e+00
       O -1.00682e+01 -3.33438e+01 -3.55209e+00
       H -9.50964e+00 -3.25929e+01 -3.80199e+00
       H -9.49207e+00 -3.40613e+01 -3.80248e+00
       O  7.85082e+00 -5.36448e+01  1.45560e-01
       H  7.58965e+00 -5.33017e+01  9.92117e-01
       H  8.60114e+00 -5.30113e+01 -9.32409e-02
       O -4.30489e+00 -2.88258e+00  1.42172e+00
       H -4.09288e+00 -3.00099e+00  4.73710e-01
       H -4.90743e+00 -3.69646e+00  1.46475e+00
       O -2.66111e+01 -2.42042e+01 -7.57328e-01
       H -2.62983e+01 -2.33334e+01 -5.19107e-01
       H -2.68959e+01 -2.46139e+01  1.46541e-01
       O  9.59967e+00  9.30177e+00 -3.60131e+00
       H  9.57761e+00  8.37634e+00 -3.87060e+00
       H  8.91091e+00  9.26603e+00 -2.83430e+00
       O -4.71040e+00 -2.92669e+01 -1.64646e+01
       H -5.50977e+00 -2.96305e+01 -1.68390e+01
       H -4.37192e+00 -3.00436e+01 -1.60240e+01
       O -1.63871e+01 -2.64125e+01 -1.13623e+01
       H -1.64422e+01 -2.58303e+01 -1.05774e+01
       H -1.73019e+01 -2.67924e+01 -1.13706e+01
       O -2.20990e+01 -2.98621e+01 -1.62427e+01
       H -2.15639e+01 -3.02018e+01 -1.54588e+01
       H -2.14573e+01 -3.00591e+01 -1.70065e+01
       O  1.60315e+00 -7.12553e+00  3.69983e+00
       H  6.65042e-01 -6.92450e+00  3.74320e+00
       H  1.86711e+00 -6.28027e+00  3.26271e+00
       O -8.55485e+00 -1.67720e+01 -1.30401e+01
       H -7.82831e+00 -1.67135e+01 -1.23898e+01
       H -8.72454e+00 -1.76795e+01 -1.31112e+01
       O -1.22204e+01 -2.51922e+01 -1.74503e+01
       H -1.15429e+01 -2.52113e+01 -1.80667e+01
       H -1.26009e+01 -2.60297e+01 -1.76255e+01
       O  2.05095e+00 -1.16653e+01 -6.01905e+00
       H  1.67606e+00 -1.19265e+01 -6.84841e+00
       H  2.71115e+00 -1.24169e+01 -6.10073e+00
       O -9.62659e+00 -2.88860e+01 -1.69007e+01
       H -1.03567e+01 -2.91442e+01 -1.74495e+01
       H -9.99557e+00 -2.91838e+01 -1.60317e+01
       O -2.52298e+01 -1.37410e+01 -2.25172e+01
       H -2.48682e+01 -1.34987e+01 -2.16432e+01
       H -2.54542e+01 -1.46890e+01 -2.22824e+01
       O -3.07323e+01  7.36072e-01 -4.64058e+00
       H -3.02750e+01  1.26531e+00 -5.33783e+00
       H -3.16662e+01  9.99604e-01 -4.64278e+00
       O -9.97142e+00 -2.91715e+00 -1.03783e+00
       H -1.03142e+01 -3.60032e+00 -1.69808e+00
       H -1.06536e+01 -2.27520e+00 -1.20429e+00
       O -2.76229e+01 -6.78374e+00 -1.15877e+01
       H -2.73731e+01 -7.72534e+00 -1.15964e+01
       H -2.74613e+01 -6.53422e+00 -1.25577e+01
       O -3.31538e+00  2.36834e+00 -2.68886e+01
       H -3.94423e+00  2.24750e+00 -2.60323e+01
       H -3.65496e+00  1.80770e+00 -2.75568e+01
       O -2.11092e+01 -1.76961e-01 -2.39148e+00
       H -2.15457e+01  2.56532e-01 -1.69103e+00
       H -2.01956e+01  1.68881e-03 -2.01921e+00
       O -2.27395e+01 -2.16027e+01 -5.85994e+00
       H -2.17371e+01 -2.15977e+01 -5.84769e+00
       H -2.28486e+01 -2.12934e+01 -4.89275e+00
       O  6.43457e+00  1.18422e+01  1.04529e+01
       H  6.84568e+00  1.22454e+01  9.66627e+00
       H  5.87787e+00  1.25560e+01  1.07789e+01
       O -1.63061e+01 -8.85296e+00 -2.50317e+00
       H -1.69630e+01 -8.41517e+00 -3.02849e+00
       H -1.63151e+01 -8.31585e+00 -1.70583e+00
       O -2.93458e+00 -1.84154e+01 -3.33669e+01
       H -2.23382e+00 -1.77944e+01 -3.30606e+01
       H -2.49483e+00 -1.92271e+01 -3.31923e+01
       O -1.25676e+00 -1.29133e+01 -4.98923e+00
       H -1.70484e+00 -1.30830e+01 -4.20204e+00
       H -8.77151e-01 -1.20632e+01 -4.77114e+00
       O -6.49592e-02 -1.73866e+01  1.71215e-01
       H -1.52792e-01 -1.73664e+01  1.18211e+00
       H  1.32780e-01 -1.82807e+01 -1.03860e-02
       O -3.09798e+01 -1.36520e+01 -9.67735e+00
       H -3.10807e+01 -1.42668e+01 -8.91472e+00
       H -3.00077e+01 -1.36557e+01 -9.80827e+00
       O -9.67667e+00 -9.77310e+00 -2.98711e+01
       H -9.49781e+00 -1.02986e+01 -3.06826e+01
       H -1.06329e+01 -9.74699e+00 -3.00468e+01
       O -1.92944e+01 -1.90325e+01 -5.22281e+00
       H -1.97072e+01 -1.99144e+01 -5.33331e+00
       H -1.91460e+01 -1.90282e+01 -4.27532e+00
       O -9.66369e+00 -2.22342e+01 -1.96260e+01
       H -9.14738e+00 -2.20305e+01 -1.87197e+01
       H -9.60691e+00 -2.31790e+01 -1.97344e+01
       O -2.25895e+01  1.25311e+01 -2.61141e+01
       H -2.35271e+01  1.25719e+01 -2.60387e+01
       H -2.25336e+01  1.21420e+01 -2.70106e+01
       O  9.86414e+00 -1.59141e+01 -2.89344e+01
       H  1.03233e+01 -1.53565e+01 -2.83209e+01
       H  9.06074e+00 -1.54583e+01 -2.92697e+01
       O -1.53287e+01 -3.63591e+01 -1.30396e+01
       H -1.56682e+01 -3.60098e+01 -1.21591e+01
       H -1.45060e+01 -3.68350e+01 -1.27134e+01
       O -1.67513e+01 -5.17473e+00  6.68614e+00
       H -1.63986e+01 -5.98749e+00  7.10287e+00
       H -1.72373e+01 -4.76102e+00  7.43407e+00
       O -4.21369e+01 -3.60736e+01 -1.90714e+01
       H -4.20388e+01 -3.69733e+01 -1.86657e+01
       H -4.13735e+01 -3.60928e+01 -1.96271e+01
       O -6.16415e+00 -1.45790e+01 -1.69799e+01
       H -6.35424e+00 -1.53199e+01 -1.75289e+01
       H -5.43677e+00 -1.41354e+01 -1.74726e+01
       O -4.47195e+01 -3.55081e+01 -2.79801e+01
       H -4.39505e+01 -3.53629e+01 -2.84959e+01
       H -4.53776e+01 -3.50467e+01 -2.85153e+01
       O -5.30206e+01 -2.16024e+01 -9.37590e+00
       H -5.37262e+01 -2.17543e+01 -8.71834e+00
       H -5.32769e+01 -2.22638e+01 -1.00684e+01
       O  1.24182e+00 -1.14911e+00  2.85034e+00
       H  2.01392e+00 -1.71833e+00  2.92405e+00
       H  6.68963e-01 -1.52095e+00  3.56144e+00
       O -4.84948e+00 -2.92026e+01 -4.43371e+01
       H -5.40512e+00 -2.84974e+01 -4.47133e+01
       H -5.40695e+00 -2.99211e+01 -4.45453e+01
       O -3.99223e+00 -2.12861e+01 -1.97215e+01
       H -4.54164e+00 -2.15920e+01 -2.04873e+01
       H -3.70637e+00 -2.04834e+01 -2.00672e+01
       O -5.76150e+00 -1.55184e+01  2.67671e+00
       H -5.05867e+00 -1.50012e+01  2.23680e+00
       H -5.78422e+00 -1.52579e+01  3.58335e+00
       O -5.36598e+01 -2.30618e+01 -5.68682e+00
       H -5.34650e+01 -2.38569e+01 -6.15538e+00
       H -5.41456e+01 -2.26588e+01 -6.39331e+00
       O -2.21570e+01 -2.15136e+01  1.54611e+00
       H -2.27631e+01 -2.22269e+01  1.84673e+00
       H -2.14722e+01 -2.16672e+01  2.21808e+00
       O -2.53726e+01  2.48651e+01 -1.50735e+01
       H -2.56936e+01  2.44031e+01 -1.58980e+01
       H -2.46612e+01  2.55111e+01 -1.53837e+01
       O  1.17338e+01  1.35611e+00 -3.25512e+00
       H  1.12874e+01  2.18155e+00 -3.38068e+00
       H  1.09405e+01  9.08866e-01 -3.29836e+00
       O -1.51969e+01  4.12023e+00  8.03702e+00
       H -1.53545e+01  3.51276e+00  7.34113e+00
       H -1.53766e+01  4.92021e+00  7.50278e+00
       O -2.94570e+01 -1.27017e+01 -5.29762e+00
       H -2.96739e+01 -1.18975e+01 -4.76534e+00
       H -2.98627e+01 -1.23980e+01 -6.10434e+00
       O -4.90638e+01 -2.12911e+01  1.08548e+01
       H -4.95713e+01 -2.05703e+01  1.13053e+01
       H -4.87927e+01 -2.17760e+01  1.16509e+01
       O -6.28505e+00  8.30123e+00 -2.08415e+01
       H -6.61388e+00  7.42164e+00 -2.09584e+01
       H -5.63181e+00  8.07334e+00 -2.02092e+01
       O -7.28689e+00 -2.61267e+01 -3.75544e+01
       H -6.51190e+00 -2.65379e+01 -3.78788e+01
       H -7.51092e+00 -2.65441e+01 -3.67337e+01
       O -8.13277e+00 -2.49670e+01  2.18605e+00
       H -8.34511e+00 -2.59193e+01  2.25850e+00
       H -8.29679e+00 -2.46471e+01  3.09647e+00
       O -1.27228e+01  9.47982e-01 -2.65526e+01
       H -1.33694e+01  1.20098e+00 -2.72228e+01
       H -1.31497e+01  1.09488e+00 -2.56933e+01
       O -1.51231e+01 -9.72902e-01 -7.87105e+00
       H -1.41912e+01 -9.80871e-01 -8.01468e+00
       H -1.52867e+01 -1.91931e+00 -8.04403e+00
       O -4.09740e+00 -1.00482e+01  1.35399e-01
       H -3.86177e+00 -9.51448e+00 -6.37548e-01
       H -3.28898e+00 -1.02021e+01  4.83885e-01
       O -3.57781e+01  1.31029e+00 -3.38255e+01
       H -3.62788e+01  1.69398e+00 -3.30756e+01
       H -3.49164e+01  1.12822e+00 -3.34238e+01
       O -4.43123e+01 -1.54276e+01 -1.10271e+01
       H -4.36835e+01 -1.57455e+01 -1.17048e+01
       H -4.45975e+01 -1.45033e+01 -1.12659e+01
       O -3.00714e+01 -2.71567e+01 -1.19461e+01
       H -2.95704e+01 -2.78795e+01 -1.16037e+01
       H -3.09049e+01 -2.70479e+01 -1.14987e+01
       O -1.59002e+01 -1.26111e+01 -4.80373e+01
       H -1.51638e+01 -1.20113e+01 -4.79237e+01
       H -1.57940e+01 -1.31325e+01 -4.88313e+01
       O -2.05095e+01 -1.78031e+00 -4.53778e+00
       H -1.97032e+01 -2.12154e+00 -4.03707e+00
       H -2.08604e+01 -1.32428e+00 -3.79815e+00
       O -2.99324e+01 -2.48706e+01 -4.03717e+01
       H -2.91353e+01 -2.42901e+01 -4.03758e+01