4
# CELL(abcABC): 1000.00000  1000.00000  1000.00000    90.00000    90.00000    90.00000  Step:           0  Bead:       0 positions{angstrom}  cell{angstrom}
       O -3.11886e+00  1.07137e+00  3.55910e-01
       H -3.08121e+00  1.31708e-01  5.05403e-01
       H -3.57972e+00  1.51956e+00  1.08709e+00
       H -3.21808e+00  1.41282e+00 -5.56327e-01
4
# CELL(abcABC): 1000.00000  1000.00000  1000.00000    90.00000    90.00000    90.00000  Step:           1  Bead:       0 positions{angstrom}  cell{angstrom}
       O -3.11739e+00  1.07168e+00  3.55351e-01
       H -3.09051e+00  1.25440e-01  5.10391e-01
       H -3.57775e+00  1.51757e+00  1.08722e+00
       H -3.23415e+00  1.41622e+00 -5.52570e-01
4
# CELL(abcABC): 1000.00000  1000.00000  1000.00000    90.00000    90.00000    90.00000  Step:           2  Bead:       0 positions{angstrom}  cell{angstrom}
       O -3.11642e+00  1.07193e+00  3.54777e-01
       H -3.09911e+00  1.22132e-01  5.17089e-01
       H -3.57061e+00  1.51313e+00  1.08536e+00
       H -3.24805e+00  1.41991e+00 -5.48291e-01
4
# CELL(abcABC): 1000.00000  1000.00000  1000.00000    90.00000    90.00000    90.00000  Step:           3  Bead:       0 positions{angstrom}  cell{angstrom}
       O -3.11581e+00  1.07213e+00  3.54111e-01
       H -3.10619e+00  1.20906e-01  5.26517e-01
       H -3.56054e+00  1.50796e+00  1.08269e+00
       H -3.26061e+00  1.42318e+00 -5.44490e-01
4
# CELL(abcABC): 1000.00000  1000.00000  1000.00000    90.00000    90.00000    90.00000  Step:           4  Bead:       0 positions{angstrom}  cell{angstrom}
       O -3.11561e+00  1.07223e+00  3.53489e-01
       H -3.11240e+00  1.21997e-01  5.35541e-01
       H -3.54718e+00  1.50239e+00  1.07896e+00
       H -3.27102e+00  1.42609e+00 -5.39911e-01
4
# CELL(abcABC): 1000.00000  1000.00000  1000.00000    90.00000    90.00000    90.00000  Step:           5  Bead:       0 positions{angstrom}  cell{angstrom}
       O -3.11564e+00  1.07201e+00  3.52826e-01
       H -3.11819e+00  1.26568e-01  5.44746e-01
       H -3.53258e+00  1.49792e+00  1.07676e+00
       H -3.27938e+00  1.42939e+00 -5.36386e-01
4
# CELL(abcABC): 1000.00000  1000.00000  1000.00000    90.00000    90.00000    90.00000  Step:           6  Bead:       0 positions{angstrom}  cell{angstrom}
       O -3.11585e+00  1.07166e+00  3.52070e-01
       H -3.12262e+00  1.34355e-01  5.53282e-01
       H -3.51742e+00  1.49267e+00  1.07515e+00
       H -3.28682e+00  1.43251e+00 -5.31318e-01
4
# CELL(abcABC): 1000.00000  1000.00000  1000.00000    90.00000    90.00000    90.00000  Step:           7  Bead:       0 positions{angstrom}  cell{angstrom}
       O -3.11635e+00  1.07099e+00  3.50934e-01
       H -3.12423e+00  1.44173e-01  5.63282e-01
       H -3.50195e+00  1.48871e+00  1.07705e+00
       H -3.29274e+00  1.43725e+00 -5.25179e-01
4
# CELL(abcABC): 1000.00000  1000.00000  1000.00000    90.00000    90.00000    90.00000  Step:           8  Bead:       0 positions{angstrom}  cell{angstrom}
       O -3.11716e+00  1.07016e+00  3.49623e-01
       H -3.12337e+00  1.54810e-01  5.72757e-01
       H -3.48539e+00  1.48601e+00  1.08173e+00
       H -3.29731e+00  1.44251e+00 -5.18518e-01
4
# CELL(abcABC): 1000.00000  1000.00000  1000.00000    90.00000    90.00000    90.00000  Step:           9  Bead:       0 positions{angstrom}  cell{angstrom}
       O -3.11822e+00  1.06930e+00  3.47933e-01
       H -3.12087e+00  1.64006e-01  5.83502e-01
       H -3.46790e+00  1.48595e+00  1.09076e+00
       H -3.30044e+00  1.44694e+00 -5.11476e-01
4
# CELL(abcABC): 1000.00000  1000.00000  1000.00000    90.00000    90.00000    90.00000  Step:          10  Bead:       0 positions{angstrom}  cell{angstrom}
       O -3.11950e+00  1.06835e+00  3.46141e-01
       H -3.11652e+00  1.71406e-01  5.93606e-01
       H -3.45018e+00  1.48896e+00  1.10248e+00
       H -3.30218e+00  1.45170e+00 -5.04855e-01
4
# CELL(abcABC): 1000.00000  1000.00000  1000.00000    90.00000    90.00000    90.00000  Step:          11  Bead:       0 positions{angstrom}  cell{angstrom}
       O -3.12101e+00  1.06745e+00  3.44333e-01
       H -3.11010e+00  1.76866e-01  6.02491e-01
       H -3.43333e+00  1.49366e+00  1.11630e+00
       H -3.30148e+00  1.45574e+00 -4.98853e-01
4
# CELL(abcABC): 1000.00000  1000.00000  1000.00000    90.00000    90.00000    90.00000  Step:          12  Bead:       0 positions{angstrom}  cell{angstrom}
       O -3.12291e+00  1.06675e+00  3.42538e-01
       H -3.10051e+00  1.78948e-01  6.11079e-01
       H -3.41575e+00  1.49845e+00  1.13029e+00
       H -3.29840e+00  1.46001e+00 -4.92950e-01
4
# CELL(abcABC): 1000.00000  1000.00000  1000.00000    90.00000    90.00000    90.00000  Step:          13  Bead:       0 positions{angstrom}  cell{angstrom}
       O -3.12517e+00  1.06625e+00  3.40763e-01
       H -3.08898e+00  1.78479e-01  6.19798e-01
       H -3.39576e+00  1.50372e+00  1.14420e+00
       H -3.29415e+00  1.46324e+00 -4.87396e-01
4
# CELL(abcABC): 1000.00000  1000.00000  1000.00000    90.00000    90.00000    90.00000  Step:          14  Bead:       0 positions{angstrom}  cell{angstrom}
       O -3.12777e+00  1.06591e+00  3.39087e-01
       H -3.07431e+00  1.75146e-01  6.28601e-01
       H -3.37394e+00  1.50962e+00  1.15677e+00
       H -3.28931e+00  1.46603e+00 -4.82170e-01
4
# CELL(abcABC): 1000.00000  1000.00000  1000.00000    90.00000    90.00000    90.00000  Step:          15  Bead:       0 positions{angstrom}  cell{angstrom}
       O -3.13057e+00  1.06561e+00  3.37421e-01
       H -3.06008e+00  1.69773e-01  6.38893e-01
       H -3.35140e+00  1.51558e+00  1.16723e+00
       H -3.28162e+00  1.47012e+00 -4.76464e-01
4
# CELL(abcABC): 1000.00000  1000.00000  1000.00000    90.00000    90.00000    90.00000  Step:          16  Bead:       0 positions{angstrom}  cell{angstrom}
       O -3.13364e+00  1.06533e+00  3.36064e-01
       H -3.04363e+00  1.63854e-01  6.47706e-01
       H -3.32780e+00  1.52178e+00  1.17458e+00
       H -3.27298e+00  1.47428e+00 -4.71108e-01
4
# CELL(abcABC): 1000.00000  1000.00000  1000.00000    90.00000    90.00000    90.00000  Step:          17  Bead:       0 positions{angstrom}  cell{angstrom}
       O -3.13678e+00  1.06506e+00  3.35082e-01
       H -3.02569e+00  1.59548e-01  6.55123e-01
       H -3.30425e+00  1.52759e+00  1.17726e+00
       H -3.26461e+00  1.47704e+00 -4.65600e-01
4
# CELL(abcABC): 1000.00000  1000.00000  1000.00000    90.00000    90.00000    90.00000  Step:          18  Bead:       0 positions{angstrom}  cell{angstrom}
       O -3.13997e+00  1.06466e+00  3.34513e-01
       H -3.00845e+00  1.58275e-01  6.60705e-01
       H -3.27899e+00  1.53228e+00  1.17596e+00
       H -3.25641e+00  1.48007e+00 -4.60850e-01
4
# CELL(abcABC): 1000.00000  1000.00000  1000.00000    90.00000    90.00000    90.00000  Step:          19  Bead:       0 positions{angstrom}  cell{angstrom}
       O -3.14328e+00  1.06421e+00  3.34348e-01
       H -2.99084e+00  1.59671e-01  6.64466e-01
       H -3.25428e+00  1.53537e+00  1.17032e+00
       H -3.24626e+00  1.48270e+00 -4.56355e-01
4
# CELL(abcABC): 1000.00000  1000.00000  1000.00000    90.00000    90.00000    90.00000  Step:          20  Bead:       0 positions{angstrom}  cell{angstrom}
       O -3.14654e+00  1.06369e+00  3.34635e-01
       H -2.97356e+00  1.64549e-01  6.64380e-01
       H -3.23071e+00  1.53790e+00  1.16191e+00
       H -3.23541e+00  1.48363e+00 -4.52417e-01
4
# CELL(abcABC): 1000.00000  1000.00000  1000.00000    90.00000    90.00000    90.00000  Step:          21  Bead:       0 positions{angstrom}  cell{angstrom}
       O -3.14978e+00  1.06303e+00  3.35330e-01
       H -2.95736e+00  1.71714e-01  6.60677e-01
       H -3.20610e+00  1.54080e+00  1.15243e+00
       H -3.22480e+00  1.48396e+00 -4.50274e-01
4
# CELL(abcABC): 1000.00000  1000.00000  1000.00000    90.00000    90.00000    90.00000  Step:          22  Bead:       0 positions{angstrom}  cell{angstrom}
       O -3.15295e+00  1.06218e+00  3.36382e-01
       H -2.94316e+00  1.80180e-01  6.55688e-01
       H -3.18012e+00  1.54435e+00  1.14041e+00
       H -3.21458e+00  1.48549e+00 -4.49948e-01
4
# CELL(abcABC): 1000.00000  1000.00000  1000.00000    90.00000    90.00000    90.00000  Step:          23  Bead:       0 positions{angstrom}  cell{angstrom}
       O -3.15601e+00  1.06121e+00  3.37778e-01
       H -2.92979e+00  1.90517e-01  6.48261e-01
       H -3.15412e+00  1.54945e+00  1.12914e+00
       H -3.20545e+00  1.48547e+00 -4.53421e-01
4
# CELL(abcABC): 1000.00000  1000.00000  1000.00000    90.00000    90.00000    90.00000  Step:          24  Bead:       0 positions{angstrom}  cell{angstrom}
       O -3.15892e+00  1.06007e+00  3.39234e-01
       H -2.91680e+00  2.00037e-01  6.39395e-01
       H -3.12863e+00  1.55725e+00  1.11960e+00
       H -3.19766e+00  1.48619e+00 -4.58118e-01
4
# CELL(abcABC): 1000.00000  1000.00000  1000.00000    90.00000    90.00000    90.00000  Step:          25  Bead:       0 positions{angstrom}  cell{angstrom}
       O -3.16162e+00  1.05902e+00  3.40566e-01
       H -2.90471e+00  2.07574e-01  6.30551e-01
       H -3.10439e+00  1.56621e+00  1.11233e+00
       H -3.19118e+00  1.48642e+00 -4.63156e-01
4
# CELL(abcABC): 1000.00000  1000.00000  1000.00000    90.00000    90.00000    90.00000  Step:          26  Bead:       0 positions{angstrom}  cell{angstrom}
       O -3.16411e+00  1.05811e+00  3.41789e-01
       H -2.89335e+00  2.12516e-01  6.20726e-01
       H -3.08077e+00  1.57655e+00  1.10709e+00
       H -3.18655e+00  1.48544e+00 -4.67497e-01
4
# CELL(abcABC): 1000.00000  1000.00000  1000.00000    90.00000    90.00000    90.00000  Step:          27  Bead:       0 positions{angstrom}  cell{angstrom}
       O -3.16651e+00  1.05734e+00  3.42938e-01
       H -2.88280e+00  2.15842e-01  6.10354e-01
       H -3.05812e+00  1.58724e+00  1.10341e+00
       H -3.18170e+00  1.48370e+00 -4.71691e-01
4
# CELL(abcABC): 1000.00000  1000.00000  1000.00000    90.00000    90.00000    90.00000  Step:          28  Bead:       0 positions{angstrom}  cell{angstrom}
       O -3.16864e+00  1.05678e+00  3.43936e-01
       H -2.87386e+00  2.14661e-01  6.00258e-01
       H -3.03599e+00  1.59860e+00  1.10128e+00
       H -3.17891e+00  1.48238e+00 -4.75298e-01
4
# CELL(abcABC): 1000.00000  1000.00000  1000.00000    90.00000    90.00000    90.00000  Step:          29  Bead:       0 positions{angstrom}  cell{angstrom}
       O -3.17057e+00  1.05643e+00  3.44896e-01
       H -2.86490e+00  2.11022e-01  5.89284e-01
       H -3.01612e+00  1.60960e+00  1.09961e+00
       H -3.17718e+00  1.48058e+00 -4.77894e-01
4
# CELL(abcABC): 1000.00000  1000.00000  1000.00000    90.00000    90.00000    90.00000  Step:          30  Bead:       0 positions{angstrom}  cell{angstrom}
       O -3.17223e+00  1.05623e+00  3.45809e-01
       H -2.85642e+00  2.06183e-01  5.79632e-01
       H -2.99808e+00  1.61944e+00  1.09802e+00
       H -3.17733e+00  1.47883e+00 -4.81147e-01
4
# CELL(abcABC): 1000.00000  1000.00000  1000.00000    90.00000    90.00000    90.00000  Step:          31  Bead:       0 positions{angstrom}  cell{angstrom}
       O -3.17373e+00  1.05615e+00  3.46810e-01
       H -2.84750e+00  2.00082e-01  5.70712e-01
       H -2.98128e+00  1.62854e+00  1.09477e+00
       H -3.17932e+00  1.47703e+00 -4.84862e-01
4
# CELL(abcABC): 1000.00000  1000.00000  1000.00000    90.00000    90.00000    90.00000  Step:          32  Bead:       0 positions{angstrom}  cell{angstrom}
       O -3.17485e+00  1.05638e+00  3.47688e-01
       H -2.84100e+00  1.91648e-01  5.62887e-01
       H -2.96604e+00  1.63654e+00  1.09125e+00
       H -3.18315e+00  1.47387e+00 -4.87456e-01
4
# CELL(abcABC): 1000.00000  1000.00000  1000.00000    90.00000    90.00000    90.00000  Step:          33  Bead:       0 positions{angstrom}  cell{angstrom}
       O -3.17558e+00  1.05690e+00  3.48538e-01
       H -2.83699e+00  1.83182e-01  5.56670e-01
       H -2.95270e+00  1.64074e+00  1.08642e+00
       H -3.18891e+00  1.46979e+00 -4.89898e-01
4
# CELL(abcABC): 1000.00000  1000.00000  1000.00000    90.00000    90.00000    90.00000  Step:          34  Bead:       0 positions{angstrom}  cell{angstrom}
       O -3.17576e+00  1.05758e+00  3.49569e-01
       H -2.83490e+00  1.76202e-01  5.50541e-01
       H -2.94354e+00  1.64153e+00  1.08017e+00
       H -3.19731e+00  1.46520e+00 -4.93890e-01
4
# CELL(abcABC): 1000.00000  1000.00000  1000.00000    90.00000    90.00000    90.00000  Step:          35  Bead:       0 positions{angstrom}  cell{angstrom}
       O -3.17555e+00  1.05829e+00  3.50666e-01
       H -2.83373e+00  1.71560e-01  5.43834e-01
       H -2.93787e+00  1.64054e+00  1.07327e+00
       H -3.20758e+00  1.45967e+00 -4.97690e-01
4
# CELL(abcABC): 1000.00000  1000.00000  1000.00000    90.00000    90.00000    90.00000  Step:          36  Bead:       0 positions{angstrom}  cell{angstrom}
       O -3.17495e+00  1.05890e+00  3.51801e-01
       H -2.83503e+00  1.69807e-01  5.36764e-01
       H -2.93413e+00  1.63860e+00  1.06488e+00
       H -3.21957e+00  1.45358e+00 -5.00253e-01
4
# CELL(abcABC): 1000.00000  1000.00000  1000.00000    90.00000    90.00000    90.00000  Step:          37  Bead:       0 positions{angstrom}  cell{angstrom}
       O -3.17402e+00  1.05953e+00  3.52777e-01
       H -2.83830e+00  1.71805e-01  5.31713e-01
       H -2.93158e+00  1.63446e+00  1.05623e+00
       H -3.23349e+00  1.44582e+00 -5.02048e-01
4
# CELL(abcABC): 1000.00000  1000.00000  1000.00000    90.00000    90.00000    90.00000  Step:          38  Bead:       0 positions{angstrom}  cell{angstrom}
       O -3.17262e+00  1.06007e+00  3.53782e-01
       H -2.84491e+00  1.76142e-01  5.25898e-01
       H -2.93010e+00  1.62844e+00  1.04862e+00
       H -3.25063e+00  1.43890e+00 -5.04573e-01
4
# CELL(abcABC): 1000.00000  1000.00000  1000.00000    90.00000    90.00000    90.00000  Step:          39  Bead:       0 positions{angstrom}  cell{angstrom}
       O -3.17114e+00  1.06064e+00  3.54445e-01
       H -2.85265e+00  1.81614e-01  5.21270e-01
       H -2.92874e+00  1.62144e+00  1.04448e+00
       H -3.26783e+00  1.43130e+00 -5.06328e-01
4
# CELL(abcABC): 1000.00000  1000.00000  1000.00000    90.00000    90.00000    90.00000  Step:          40  Bead:       0 positions{angstrom}  cell{angstrom}
       O -3.16952e+00  1.06110e+00  3.54594e-01
       H -2.86170e+00  1.87912e-01  5.18526e-01
       H -2.92708e+00  1.61556e+00  1.04561e+00
       H -3.28602e+00  1.42371e+00 -5.07081e-01
4
# CELL(abcABC): 1000.00000  1000.00000  1000.00000    90.00000    90.00000    90.00000  Step:          41  Bead:       0 positions{angstrom}  cell{angstrom}
       O -3.16780e+00  1.06149e+00  3.54314e-01
       H -2.87183e+00  1.94368e-01  5.16511e-01
       H -2.92449e+00  1.61138e+00  1.05111e+00
       H -3.30582e+00  1.41510e+00 -5.06120e-01
4
# CELL(abcABC): 1000.00000  1000.00000  1000.00000    90.00000    90.00000    90.00000  Step:          42  Bead:       0 positions{angstrom}  cell{angstrom}
       O -3.16613e+00  1.06210e+00  3.53709e-01
       H -2.88068e+00  1.96981e-01  5.15540e-01
       H -2.92128e+00  1.60838e+00  1.06080e+00
       H -3.32670e+00  1.40588e+00 -5.05226e-01
4
# CELL(abcABC): 1000.00000  1000.00000  1000.00000    90.00000    90.00000    90.00000  Step:          43  Bead:       0 positions{angstrom}  cell{angstrom}
       O -3.16441e+00  1.06280e+00  3.52789e-01
       H -2.88957e+00  1.97602e-01  5.15665e-01
       H -2.91773e+00  1.60729e+00  1.07375e+00
       H -3.34867e+00  1.39517e+00 -5.03698e-01
4
# CELL(abcABC): 1000.00000  1000.00000  1000.00000    90.00000    90.00000    90.00000  Step:          44  Bead:       0 positions{angstrom}  cell{angstrom}
       O -3.16263e+00  1.06379e+00  3.51627e-01
       H -2.89779e+00  1.94270e-01  5.16625e-01
       H -2.91422e+00  1.60549e+00  1.08798e+00
       H -3.37224e+00  1.38464e+00 -5.00457e-01
4
# CELL(abcABC): 1000.00000  1000.00000  1000.00000    90.00000    90.00000    90.00000  Step:          45  Bead:       0 positions{angstrom}  cell{angstrom}
       O -3.16070e+00  1.06508e+00  3.50383e-01
       H -2.90604e+00  1.88041e-01  5.18241e-01
       H -2.91046e+00  1.60194e+00  1.10185e+00
       H -3.39829e+00  1.37388e+00 -4.96197e-01
4
# CELL(abcABC): 1000.00000  1000.00000  1000.00000    90.00000    90.00000    90.00000  Step:          46  Bead:       0 positions{angstrom}  cell{angstrom}
       O -3.15876e+00  1.06667e+00  3.49124e-01
       H -2.91396e+00  1.80176e-01  5.20491e-01
       H -2.90748e+00  1.59580e+00  1.11457e+00
       H -3.42420e+00  1.36277e+00 -4.91175e-01
4
# CELL(abcABC): 1000.00000  1000.00000  1000.00000    90.00000    90.00000    90.00000  Step:          47  Bead:       0 positions{angstrom}  cell{angstrom}
       O -3.15672e+00  1.06834e+00  3.48024e-01
       H -2.92158e+00  1.70884e-01  5.23724e-01
       H -2.90517e+00  1.58784e+00  1.12486e+00
       H -3.45126e+00  1.35344e+00 -4.87241e-01
4
# CELL(abcABC): 1000.00000  1000.00000  1000.00000    90.00000    90.00000    90.00000  Step:          48  Bead:       0 positions{angstrom}  cell{angstrom}
       O -3.15459e+00  1.07022e+00  3.47010e-01
       H -2.92861e+00  1.60685e-01  5.27605e-01
       H -2.90369e+00  1.57838e+00  1.13235e+00
       H -3.47955e+00  1.34336e+00 -4.82509e-01
4
# CELL(abcABC): 1000.00000  1000.00000  1000.00000    90.00000    90.00000    90.00000  Step:          49  Bead:       0 positions{angstrom}  cell{angstrom}
       O -3.15243e+00  1.07209e+00  3.46019e-01
       H -2.93568e+00  1.51531e-01  5.31999e-01
       H -2.90178e+00  1.56676e+00  1.13768e+00
       H -3.50874e+00  1.33444e+00 -4.76517e-01
4
# CELL(abcABC): 1000.00000  1000.00000  1000.00000    90.00000    90.00000    90.00000  Step:          50  Bead:       0 positions{angstrom}  cell{angstrom}
       O -3.15003e+00  1.07391e+00  3.45290e-01
       H -2.94332e+00  1.45210e-01  5.35624e-01
       H -2.90219e+00  1.55297e+00  1.14090e+00
       H -3.53875e+00  1.32564e+00 -4.71773e-01
4
# CELL(abcABC): 1000.00000  1000.00000  1000.00000    90.00000    90.00000    90.00000  Step:          51  Bead:       0 positions{angstrom}  cell{angstrom}
       O -3.14759e+00  1.07550e+00  3.44731e-01
       H -2.95166e+00  1.41974e-01  5.37991e-01
       H -2.90331e+00  1.53869e+00  1.14220e+00
       H -3.56792e+00  1.31784e+00 -4.66578e-01
4
# CELL(abcABC): 1000.00000  1000.00000  1000.00000    90.00000    90.00000    90.00000  Step:          52  Bead:       0 positions{angstrom}  cell{angstrom}
       O -3.14513e+00  1.07690e+00  3.44415e-01
       H -2.96071e+00  1.42373e-01  5.39310e-01
       H -2.90478e+00  1.52383e+00  1.14129e+00
       H -3.59653e+00  1.31014e+00 -4.61974e-01
4
# CELL(abcABC): 1000.00000  1000.00000  1000.00000    90.00000    90.00000    90.00000  Step:          53  Bead:       0 positions{angstrom}  cell{angstrom}
       O -3.14272e+00  1.07792e+00  3.44144e-01
       H -2.96937e+00  1.47043e-01  5.38527e-01
       H -2.90625e+00  1.51130e+00  1.14096e+00
       H -3.62467e+00  1.30180e+00 -4.56549e-01
4
# CELL(abcABC): 1000.00000  1000.00000  1000.00000    90.00000    90.00000    90.00000  Step:          54  Bead:       0 positions{angstrom}  cell{angstrom}
       O -3.14037e+00  1.07867e+00  3.43626e-01
       H -2.97804e+00  1.53910e-01  5.37672e-01
       H -2.90745e+00  1.50116e+00  1.14224e+00
       H -3.65203e+00  1.29309e+00 -4.48766e-01
4
# CELL(abcABC): 1000.00000  1000.00000  1000.00000    90.00000    90.00000    90.00000  Step:          55  Bead:       0 positions{angstrom}  cell{angstrom}
       O -3.13821e+00  1.07913e+00  3.43045e-01
       H -2.98693e+00  1.63014e-01  5.36551e-01
       H -2.90760e+00  1.49333e+00  1.14560e+00
       H -3.67731e+00  1.28463e+00 -4.41778e-01
4
# CELL(abcABC): 1000.00000  1000.00000  1000.00000    90.00000    90.00000    90.00000  Step:          56  Bead:       0 positions{angstrom}  cell{angstrom}
       O -3.13630e+00  1.07930e+00  3.42416e-01
       H -2.99292e+00  1.73093e-01  5.35181e-01
       H -2.90685e+00  1.48765e+00  1.14935e+00
       H -3.70235e+00  1.27750e+00 -4.34161e-01
4
# CELL(abcABC): 1000.00000  1000.00000  1000.00000    90.00000    90.00000    90.00000  Step:          57  Bead:       0 positions{angstrom}  cell{angstrom}
       O -3.13462e+00  1.07928e+00  3.41689e-01
       H -2.99619e+00  1.82871e-01  5.33718e-01
       H -2.90600e+00  1.48397e+00  1.15541e+00
       H -3.72667e+00  1.27172e+00 -4.27230e-01
4
# CELL(abcABC): 1000.00000  1000.00000  1000.00000    90.00000    90.00000    90.00000  Step:          58  Bead:       0 positions{angstrom}  cell{angstrom}
       O -3.13328e+00  1.07927e+00  3.40947e-01
       H -2.99680e+00  1.89391e-01  5.31730e-01
       H -2.90365e+00  1.48251e+00  1.16287e+00
       H -3.74971e+00  1.26682e+00 -4.20930e-01
4
# CELL(abcABC): 1000.00000  1000.00000  1000.00000    90.00000    90.00000    90.00000  Step:          59  Bead:       0 positions{angstrom}  cell{angstrom}
       O -3.13229e+00  1.07927e+00  3.40128e-01
       H -2.99459e+00  1.92384e-01  5.29646e-01
       H -2.89993e+00  1.48336e+00  1.17184e+00
       H -3.77136e+00  1.26288e+00 -4.14808e-01
4
# CELL(abcABC): 1000.00000  1000.00000  1000.00000    90.00000    90.00000    90.00000  Step:          60  Bead:       0 positions{angstrom}  cell{angstrom}
       O -3.13165e+00  1.07946e+00  3.39474e-01
       H -2.99129e+00  1.90882e-01  5.27520e-01
       H -2.89453e+00  1.48481e+00  1.17798e+00
       H -3.79023e+00  1.25995e+00 -4.08450e-01
4
# CELL(abcABC): 1000.00000  1000.00000  1000.00000    90.00000    90.00000    90.00000  Step:          61  Bead:       0 positions{angstrom}  cell{angstrom}
       O -3.13142e+00  1.07984e+00  3.39036e-01
       H -2.98497e+00  1.85071e-01  5.24944e-01
       H -2.88709e+00  1.48672e+00  1.18070e+00
       H -3.80763e+00  1.25789e+00 -4.01638e-01
4
# CELL(abcABC): 1000.00000  1000.00000  1000.00000    90.00000    90.00000    90.00000  Step:          62  Bead:       0 positions{angstrom}  cell{angstrom}
       O -3.13142e+00  1.08040e+00  3.38972e-01
       H -2.97738e+00  1.75792e-01  5.21524e-01
       H -2.88018e+00  1.48844e+00  1.18019e+00
       H -3.82206e+00  1.25656e+00 -3.96682e-01
4
# CELL(abcABC): 1000.00000  1000.00000  1000.00000    90.00000    90.00000    90.00000  Step:          63  Bead:       0 positions{angstrom}  cell{angstrom}
       O -3.13165e+00  1.08086e+00  3.39023e-01
       H -2.96768e+00  1.66546e-01  5.17931e-01
       H -2.87306e+00  1.48947e+00  1.17660e+00
       H -3.83522e+00  1.25746e+00 -3.90318e-01
4
# CELL(abcABC): 1000.00000  1000.00000  1000.00000    90.00000    90.00000    90.00000  Step:          64  Bead:       0 positions{angstrom}  cell{angstrom}
       O -3.13217e+00  1.08122e+00  3.39308e-01
       H -2.95525e+00  1.58302e-01  5.14460e-01
       H -2.86511e+00  1.49026e+00  1.17027e+00
       H -3.84732e+00  1.25922e+00 -3.85036e-01
4
# CELL(abcABC): 1000.00000  1000.00000  1000.00000    90.00000    90.00000    90.00000  Step:          65  Bead:       0 positions{angstrom}  cell{angstrom}
       O -3.13294e+00  1.08132e+00  3.39872e-01
       H -2.94241e+00  1.52890e-01  5.08855e-01
       H -2.85596e+00  1.49241e+00  1.16142e+00
       H -3.85722e+00  1.26092e+00 -3.79531e-01
4
# CELL(abcABC): 1000.00000  1000.00000  1000.00000    90.00000    90.00000    90.00000  Step:          66  Bead:       0 positions{angstrom}  cell{angstrom}
       O -3.13393e+00  1.08103e+00  3.40563e-01
       H -2.92881e+00  1.53303e-01  5.02835e-01
       H -2.84603e+00  1.49339e+00  1.15108e+00
       H -3.86495e+00  1.26398e+00 -3.74150e-01
4
# CELL(abcABC): 1000.00000  1000.00000  1000.00000    90.00000    90.00000    90.00000  Step:          67  Bead:       0 positions{angstrom}  cell{angstrom}
       O -3.13506e+00  1.08052e+00  3.41417e-01
       H -2.91427e+00  1.56405e-01  4.94945e-01
       H -2.83481e+00  1.49509e+00  1.14019e+00
       H -3.87275e+00  1.26735e+00 -3.68918e-01
4
# CELL(abcABC): 1000.00000  1000.00000  1000.00000    90.00000    90.00000    90.00000  Step:          68  Bead:       0 positions{angstrom}  cell{angstrom}
       O -3.13642e+00  1.07965e+00  3.42530e-01
       H -2.89856e+00  1.62619e-01  4.85799e-01
       H -2.82230e+00  1.49781e+00  1.12729e+00
       H -3.87947e+00  1.27230e+00 -3.64534e-01
4
# CELL(abcABC): 1000.00000  1000.00000  1000.00000    90.00000    90.00000    90.00000  Step:          69  Bead:       0 positions{angstrom}  cell{angstrom}
       O -3.13790e+00  1.07859e+00  3.43515e-01
       H -2.88271e+00  1.70030e-01  4.77485e-01
       H -2.80935e+00  1.50191e+00  1.11561e+00
       H -3.88477e+00  1.27748e+00 -3.60171e-01
4
# CELL(abcABC): 1000.00000  1000.00000  1000.00000    90.00000    90.00000    90.00000  Step:          70  Bead:       0 positions{angstrom}  cell{angstrom}
       O -3.13972e+00  1.07716e+00  3.44514e-01
       H -2.86595e+00  1.79927e-01  4.67612e-01
       H -2.79497e+00  1.50828e+00  1.10438e+00
       H -3.88700e+00  1.28402e+00 -3.54935e-01
4
# CELL(abcABC): 1000.00000  1000.00000  1000.00000    90.00000    90.00000    90.00000  Step:          71  Bead:       0 positions{angstrom}  cell{angstrom}
       O -3.14167e+00  1.07562e+00  3.45569e-01
       H -2.84921e+00  1.89468e-01  4.55917e-01
       H -2.77988e+00  1.51566e+00  1.09354e+00
       H -3.88780e+00  1.29151e+00 -3.49145e-01
4
# CELL(abcABC): 1000.00000  1000.00000  1000.00000    90.00000    90.00000    90.00000  Step:          72  Bead:       0 positions{angstrom}  cell{angstrom}
       O -3.14384e+00  1.07388e+00  3.46550e-01
       H -2.83130e+00  1.98926e-01  4.44265e-01
       H -2.76361e+00  1.52458e+00  1.08420e+00
       H -3.88756e+00  1.30068e+00 -3.43719e-01
4
# CELL(abcABC): 1000.00000  1000.00000  1000.00000    90.00000    90.00000    90.00000  Step:          73  Bead:       0 positions{angstrom}  cell{angstrom}
       O -3.14612e+00  1.07217e+00  3.47588e-01
       H -2.81255e+00  2.06910e-01  4.32391e-01
       H -2.74676e+00  1.53486e+00  1.07522e+00
       H -3.88697e+00  1.30959e+00 -3.39341e-01
4
# CELL(abcABC): 1000.00000  1000.00000  1000.00000    90.00000    90.00000    90.00000  Step:          74  Bead:       0 positions{angstrom}  cell{angstrom}
       O -3.14854e+00  1.07047e+00  3.48798e-01
       H -2.79243e+00  2.13051e-01  4.19266e-01
       H -2.72989e+00  1.54564e+00  1.06483e+00
       H -3.88550e+00  1.31970e+00 -3.35042e-01
4
# CELL(abcABC): 1000.00000  1000.00000  1000.00000    90.00000    90.00000    90.00000  Step:          75  Bead:       0 positions{angstrom}  cell{angstrom}
       O -3.15087e+00  1.06892e+00  3.50046e-01
       H -2.77182e+00  2.16137e-01  4.05722e-01
       H -2.71411e+00  1.55576e+00  1.05448e+00
       H -3.88497e+00  1.33111e+00 -3.30956e-01
4
# CELL(abcABC): 1000.00000  1000.00000  1000.00000    90.00000    90.00000    90.00000  Step:          76  Bead:       0 positions{angstrom}  cell{angstrom}
       O -3.15327e+00  1.06737e+00  3.51223e-01
       H -2.74972e+00  2.17840e-01  3.93463e-01
       H -2.69953e+00  1.56535e+00  1.04311e+00
       H -3.88356e+00  1.34441e+00 -3.26004e-01
4
# CELL(abcABC): 1000.00000  1000.00000  1000.00000    90.00000    90.00000    90.00000  Step:          77  Bead:       0 positions{angstrom}  cell{angstrom}
       O -3.15550e+00  1.06590e+00  3.52423e-01
       H -2.72758e+00  2.19620e-01  3.81470e-01
       H -2.68694e+00  1.57424e+00  1.03096e+00
       H -3.88290e+00  1.35713e+00 -3.20915e-01
4
# CELL(abcABC): 1000.00000  1000.00000  1000.00000    90.00000    90.00000    90.00000  Step:          78  Bead:       0 positions{angstrom}  cell{angstrom}
       O -3.15751e+00  1.06452e+00  3.53845e-01
       H -2.70709e+00  2.20739e-01  3.68856e-01
       H -2.67541e+00  1.58241e+00  1.01707e+00
       H -3.88299e+00  1.36969e+00 -3.16982e-01
4
# CELL(abcABC): 1000.00000  1000.00000  1000.00000    90.00000    90.00000    90.00000  Step:          79  Bead:       0 positions{angstrom}  cell{angstrom}
       O -3.15935e+00  1.06330e+00  3.55280e-01
       H -2.68843e+00  2.23251e-01  3.57915e-01
       H -2.66460e+00  1.58818e+00  1.00153e+00
       H -3.88320e+00  1.38082e+00 -3.13274e-01
4
# CELL(abcABC): 1000.00000  1000.00000  1000.00000    90.00000    90.00000    90.00000  Step:          80  Bead:       0 positions{angstrom}  cell{angstrom}
       O -3.16102e+00  1.06212e+00  3.56624e-01
       H -2.67114e+00  2.27545e-01  3.47479e-01
       H -2.65537e+00  1.59213e+00  9.85862e-01
       H -3.88333e+00  1.39125e+00 -3.08501e-01
4
# CELL(abcABC): 1000.00000  1000.00000  1000.00000    90.00000    90.00000    90.00000  Step:          81  Bead:       0 positions{angstrom}  cell{angstrom}
       O -3.16243e+00  1.06081e+00  3.58012e-01
       H -2.65403e+00  2.34608e-01  3.36993e-01
       H -2.64860e+00  1.59655e+00  9.69581e-01
       H -3.88472e+00  1.40056e+00 -3.03782e-01
4
# CELL(abcABC): 1000.00000  1000.00000  1000.00000    90.00000    90.00000    90.00000  Step:          82  Bead:       0 positions{angstrom}  cell{angstrom}
       O -3.16352e+00  1.05962e+00  3.59249e-01
       H -2.63883e+00  2.43124e-01  3.27919e-01
       H -2.64320e+00  1.59868e+00  9.52888e-01
       H -3.88807e+00  1.40882e+00 -2.97643e-01
4
# CELL(abcABC): 1000.00000  1000.00000  1000.00000    90.00000    90.00000    90.00000  Step:          83  Bead:       0 positions{angstrom}  cell{angstrom}
       O -3.16431e+00  1.05833e+00  3.60384e-01
       H -2.62640e+00  2.54005e-01  3.19958e-01
       H -2.63928e+00  1.60059e+00  9.36446e-01
       H -3.89189e+00  1.41652e+00 -2.91251e-01
4
# CELL(abcABC): 1000.00000  1000.00000  1000.00000    90.00000    90.00000    90.00000  Step:          84  Bead:       0 positions{angstrom}  cell{angstrom}
       O -3.16476e+00  1.05700e+00  3.61404e-01
       H -2.61573e+00  2.65639e-01  3.11664e-01
       H -2.63748e+00  1.60264e+00  9.20738e-01
       H -3.89717e+00  1.42390e+00 -2.83446e-01
4
# CELL(abcABC): 1000.00000  1000.00000  1000.00000    90.00000    90.00000    90.00000  Step:          85  Bead:       0 positions{angstrom}  cell{angstrom}