11135
# CELL(abcABC):   47.46614    47.46614    47.46614    90.00000    90.00000    90.00000  Step:        8150  Bead:       0 positions{angstrom}  cell{angstrom}
       C -7.54436e+00 -2.64655e+00  2.57910e+00
       H -7.19169e+00 -2.75595e+00  3.66505e+00
       H -7.89033e+00 -3.70176e+00  2.23700e+00
       H -8.27363e+00 -1.80658e+00  2.36615e+00
       C -6.26979e+00 -2.23785e+00  1.92259e+00
       O -5.78170e+00 -3.00207e+00  1.14197e+00
       N -5.74175e+00 -1.09937e+00  2.22221e+00
       H -6.11400e+00 -5.39591e-01  2.95874e+00
       C -4.74918e+00 -4.08049e-01  1.42463e+00
       H -4.48435e+00 -9.09829e-01  5.25834e-01
       C -5.27229e+00  8.71472e-01  7.56033e-01
       H -4.47801e+00  1.29319e+00  2.11303e-01
       H -5.76395e+00  1.57249e+00  1.41054e+00
       C -6.35448e+00  4.67952e-01 -2.21174e-01
       H -7.33424e+00  3.28963e-01  3.28826e-01
       H -6.10317e+00 -4.34668e-01 -7.17361e-01
       C -6.59228e+00  1.39173e+00 -1.36560e+00
       H -5.64198e+00  1.35364e+00 -1.99744e+00
       H -6.78959e+00  2.47671e+00 -1.07260e+00
       C -7.69245e+00  1.05353e+00 -2.34586e+00
       H -7.67663e+00  1.82761e+00 -3.19293e+00
       H -8.70198e+00  1.15657e+00 -1.95557e+00
       N -7.71067e+00 -2.84458e-01 -2.96447e+00
       H -6.76474e+00 -4.47094e-01 -3.31448e+00
       H -8.38336e+00 -4.41362e-01 -3.68475e+00
       H -8.02626e+00 -1.00511e+00 -2.31867e+00
       C -3.40538e+00 -4.97113e-02  2.18587e+00
       O -3.04670e+00  1.06183e+00  2.57631e+00
       N -2.53538e+00 -1.10441e+00  2.27716e+00
       H -2.84696e+00 -1.96930e+00  1.79237e+00
       H -1.68067e+00 -1.07503e+00  2.83177e+00
       O -1.26163e+01 -8.27717e+00 -2.58818e+01
       H -1.29168e+01 -8.34684e+00 -2.68026e+01
       H -1.34410e+01 -8.43714e+00 -2.55123e+01
       O -1.70480e+01 -5.45501e+00 -8.62845e+00
       H -1.73523e+01 -4.58816e+00 -8.23127e+00
       H -1.79489e+01 -5.83590e+00 -8.84135e+00
       O  1.09699e+01 -1.21425e+01 -5.68944e+00
       H  1.05737e+01 -1.29438e+01 -6.05617e+00
       H  1.03759e+01 -1.13934e+01 -5.94956e+00
       O -2.00099e+01 -1.16458e+01 -2.44937e+01
       H -1.93027e+01 -1.20006e+01 -2.39804e+01
       H -1.95135e+01 -1.12117e+01 -2.51406e+01
       O -1.30647e+01 -1.00175e+01 -1.74693e+01
       H -1.32452e+01 -9.17519e+00 -1.79148e+01
       H -1.27969e+01 -9.67586e+00 -1.66509e+01
       O  2.19372e+01 -2.19446e+01  1.98474e+01
       H  2.10891e+01 -2.18220e+01  2.02994e+01
       H  2.24890e+01 -2.16137e+01  2.05706e+01
       O -1.75580e+01 -8.28650e+00 -6.88759e+00
       H -1.65858e+01 -8.32537e+00 -6.85613e+00
       H -1.78848e+01 -9.06110e+00 -7.42416e+00
       O  2.00602e+01 -2.53683e+01 -1.51284e+01
       H  1.92052e+01 -2.51980e+01 -1.55316e+01
       H  2.00735e+01 -2.47078e+01 -1.43181e+01
       O -1.54599e+01 -1.88549e+01 -3.66485e+00
       H -1.49692e+01 -1.97044e+01 -3.45080e+00
       H -1.47496e+01 -1.82629e+01 -3.88773e+00
       O  1.43374e+01 -2.12340e+01 -1.16668e+01
       H  1.37480e+01 -2.08669e+01 -1.09664e+01
       H  1.49969e+01 -2.04436e+01 -1.16933e+01
       O -3.08711e+01 -1.43800e+01 -5.04495e+00
       H -3.11036e+01 -1.36972e+01 -4.39507e+00
       H -3.00661e+01 -1.39835e+01 -5.44634e+00
       O  5.05395e+00 -2.83894e+01 -3.65057e+00
       H  4.15645e+00 -2.84111e+01 -3.93842e+00
       H  5.45968e+00 -2.78154e+01 -4.31569e+00
       O  7.92158e+00  1.72200e+01 -8.49040e+00
       H  8.54177e+00  1.66487e+01 -7.93919e+00
       H  7.40267e+00  1.77866e+01 -7.90797e+00
       O -3.18070e+01 -1.21553e+01 -6.97316e+00
       H -3.08129e+01 -1.21735e+01 -6.64767e+00
       H -3.21458e+01 -1.27576e+01 -6.31555e+00
       O -5.23195e+00 -1.91710e+01 -2.42195e+01
       H -5.23534e+00 -1.89985e+01 -2.32609e+01
       H -5.12492e+00 -1.83038e+01 -2.46661e+01
       O -3.00589e+00 -1.07119e+01 -1.05962e+01
       H -3.61611e+00 -1.01111e+01 -1.00617e+01
       H -3.37141e+00 -1.06701e+01 -1.14586e+01
       O -1.04036e+01 -1.93489e+01 -7.18509e-01
       H -1.05249e+01 -2.00362e+01 -1.35580e+00
       H -1.08153e+01 -1.98666e+01  1.06582e-02
       O  1.17596e+00 -1.75828e+01 -2.55566e+01
       H  3.02647e-01 -1.76727e+01 -2.59465e+01
       H  1.42743e+00 -1.66537e+01 -2.55947e+01
       O -5.10396e+00 -1.73850e+01 -9.49762e+00
       H -5.17532e+00 -1.71491e+01 -1.04697e+01
       H -5.60770e+00 -1.82237e+01 -9.60117e+00
       O -8.26124e+00  1.63829e+01 -9.89787e-02
       H -9.05258e+00  1.69180e+01  2.19272e-01
       H -8.40700e+00  1.55075e+01  1.13129e-01
       O -2.55958e+01 -4.43391e+00 -9.78890e+00
       H -2.61698e+01 -3.96717e+00 -1.04019e+01
       H -2.50817e+01 -4.94724e+00 -1.04454e+01
       O -2.29550e+01 -1.20717e+01 -1.20616e+01
       H -2.34806e+01 -1.24605e+01 -1.13721e+01
       H -2.33996e+01 -1.12052e+01 -1.19944e+01
       O  2.24723e+01 -1.75587e+01 -2.18645e+01
       H  2.25595e+01 -1.85296e+01 -2.15420e+01
       H  2.18557e+01 -1.72081e+01 -2.12655e+01
       O -1.65469e+01 -1.61722e+01 -1.35431e+01
       H -1.55825e+01 -1.62765e+01 -1.37063e+01
       H -1.67214e+01 -1.55698e+01 -1.42600e+01
       O -3.23443e+00 -2.03856e+01 -1.35624e+01
       H -3.21029e+00 -2.11541e+01 -1.42365e+01
       H -4.18554e+00 -2.04227e+01 -1.33794e+01
       O -1.71277e+01 -1.25699e+01  2.00952e+01
       H -1.61645e+01 -1.27614e+01  2.00442e+01
       H -1.70879e+01 -1.25210e+01  2.10654e+01
       O -5.63777e+00 -3.39891e+01 -1.99413e+01
       H -6.17611e+00 -3.39337e+01 -2.07248e+01
       H -4.85707e+00 -3.35196e+01 -2.02771e+01
       O -7.20498e+00 -4.46810e+00  1.77400e+01
       H -7.84189e+00 -4.69476e+00  1.84498e+01
       H -6.40691e+00 -4.80573e+00  1.81929e+01
       O -1.39657e+01  6.17165e-01  1.09150e+00
       H -1.38173e+01  1.02733e+00  2.78474e-01
       H -1.30943e+01  9.06194e-01  1.51347e+00
       O -2.46800e+01 -1.11053e+01  2.48254e+01
       H -2.51818e+01 -1.15072e+01  2.40833e+01
       H -2.53517e+01 -1.04455e+01  2.50880e+01
       O -1.75886e+01 -1.65929e+01 -1.85165e+01
       H -1.77422e+01 -1.66770e+01 -1.75677e+01
       H -1.83255e+01 -1.61524e+01 -1.89073e+01
       O  2.81122e+00 -9.60963e+00 -1.97618e+01
       H  2.99583e+00 -8.67750e+00 -1.97420e+01
       H  2.37985e+00 -9.78380e+00 -1.88943e+01
       O  3.74337e+00 -9.17456e+00 -2.85166e+01
       H  3.32153e+00 -9.84732e+00 -2.79254e+01
       H  3.01184e+00 -8.76288e+00 -2.89959e+01
       O -9.18643e+00 -1.91935e+01  6.26037e+00
       H -9.97020e+00 -1.86469e+01  6.10423e+00
       H -8.70385e+00 -1.86533e+01  6.89241e+00
       O -1.37291e+01 -1.48645e+01 -1.14009e+01
       H -1.33329e+01 -1.52653e+01 -1.06487e+01
       H -1.31594e+01 -1.51195e+01 -1.21053e+01
       O -2.33425e+01 -1.85444e+01  1.95711e+01
       H -2.33884e+01 -1.76135e+01  1.92945e+01
       H -2.37036e+01 -1.89771e+01  1.87383e+01
       O -1.28609e+01 -2.65380e+01 -9.34214e+00
       H -1.36421e+01 -2.71268e+01 -9.40528e+00
       H -1.22064e+01 -2.68622e+01 -1.00524e+01
       O -2.26847e+00 -5.45723e+00 -3.10702e+01
       H -1.41605e+00 -5.87827e+00 -3.08308e+01
       H -2.05249e+00 -5.04528e+00 -3.19367e+01
       O -1.11195e+01  2.34992e+00 -1.41178e+01
       H -1.10234e+01  2.61652e+00 -1.50572e+01
       H -1.01637e+01  2.01788e+00 -1.39503e+01
       O -2.03363e+00 -2.69126e+01 -1.74602e+01
       H -1.69942e+00 -2.73280e+01 -1.82450e+01
       H -2.04845e+00 -2.77783e+01 -1.69764e+01
       O  1.19716e+01 -1.87560e+01 -1.28101e+01
       H  1.10964e+01 -1.91170e+01 -1.25504e+01
       H  1.26192e+01 -1.90357e+01 -1.21030e+01
       O -1.45691e+01 -4.08413e+00 -3.45708e+01
       H -1.39849e+01 -4.34250e+00  1.21738e+01
       H -1.53419e+01 -3.66198e+00 -3.50611e+01
       O  1.63323e+01 -2.33000e+01 -1.02644e+01
       H  1.56795e+01 -2.29760e+01 -9.60398e+00
       H  1.67084e+01 -2.39543e+01 -9.72630e+00
       O -1.86685e+01 -9.84379e+00 -1.79344e+01
       H -1.81943e+01 -9.67762e+00 -1.70947e+01
       H -1.90639e+01 -1.07952e+01 -1.78600e+01
       O -2.26190e+01 -1.94710e+01 -1.20410e+01
       H -2.25376e+01 -1.95638e+01 -1.30169e+01
       H -2.23672e+01 -2.03981e+01 -1.17434e+01
       O -4.09261e+00 -1.45528e+01  1.06493e+01
       H -3.36370e+00 -1.50306e+01  1.02084e+01
       H -3.93848e+00 -1.46330e+01  1.15729e+01
       O -1.57107e+01 -2.17328e+01  4.90446e-01
       H -1.55899e+01 -2.13695e+01  1.39061e+00
       H -1.53989e+01 -2.26329e+01  5.68700e-01
       O  5.98432e+00 -1.11952e+01 -1.11383e+01
       H  5.16657e+00 -1.06410e+01 -1.09681e+01
       H  5.71389e+00 -1.19358e+01 -1.05724e+01
       O  5.56081e+00 -1.00862e+01 -1.43469e+01
       H  5.06490e+00 -1.08542e+01 -1.41493e+01
       H  4.88532e+00 -9.46837e+00 -1.46316e+01
       O -2.20222e+01  1.73497e+00 -1.51577e+01
       H -2.10960e+01  1.94244e+00 -1.50241e+01
       H -2.20888e+01  1.77300e+00 -1.61567e+01
       O -1.42105e+01 -8.33550e+00 -2.84185e+01
       H -1.39829e+01 -8.72435e+00 -2.93022e+01
       H -1.49873e+01 -8.88416e+00 -2.81438e+01
       O -1.51812e+01 -1.05068e+01 -1.97561e+01
       H -1.51078e+01 -1.09155e+01 -1.88889e+01
       H -1.43537e+01 -1.07075e+01 -2.01610e+01
       O -1.21499e+01 -1.11900e+01 -2.51394e+01
       H -1.28939e+01 -1.17383e+01 -2.48160e+01
       H -1.17837e+01 -1.16688e+01 -2.59338e+01
       O -1.18623e+01 -2.81414e+00 -9.64353e+00
       H -1.17438e+01 -2.00122e+00 -9.07546e+00
       H -1.28081e+01 -2.87424e+00 -9.87909e+00
       O  3.67443e+00 -6.70289e+00 -1.56285e+01
       H  3.51387e+00 -7.63271e+00 -1.53045e+01
       H  4.55619e+00 -6.48937e+00 -1.52932e+01
       O -1.88797e+01 -1.16014e+01  1.50327e+00
       H -1.90614e+01 -1.19286e+01  6.23725e-01
       H -1.80087e+01 -1.19734e+01  1.53619e+00
       O -1.46511e+01 -5.85770e+00  4.98096e-01
       H -1.48309e+01 -5.17469e+00 -1.79188e-01
       H -1.46623e+01 -6.66543e+00 -7.26592e-02
       O -6.27891e+00 -1.34516e+01 -2.11244e+01
       H -6.99218e+00 -1.34254e+01 -2.04746e+01
       H -6.21745e+00 -1.43587e+01 -2.13460e+01
       O -4.89989e+00 -1.62596e+01 -1.42347e+01
       H -3.99153e+00 -1.64513e+01 -1.43484e+01
       H -5.32769e+00 -1.70128e+01 -1.47606e+01
       O -1.99932e+00  2.20807e+01  5.99331e+00
       H -2.01918e+00  2.11047e+01  5.88293e+00
       H -2.32410e+00  2.23433e+01  5.11096e+00
       O -9.06209e+00 -4.87367e+00 -2.74466e+01
       H -9.85928e+00 -4.67137e+00 -2.80180e+01
       H -9.24545e+00 -4.24165e+00 -2.67767e+01
       O -6.26456e+00  2.73420e+01  5.69977e+00
       H -7.23945e+00  2.71294e+01  5.75113e+00
       H -6.11678e+00  2.79981e+01  5.02852e+00
       O -8.57743e+00 -1.46767e+01 -1.02159e+01
       H -7.66130e+00 -1.45763e+01 -1.02191e+01
       H -8.64868e+00 -1.55758e+01 -9.89999e+00
       O  4.69996e+00 -1.36380e+01 -3.78884e+00
       H  4.40683e+00 -1.37035e+01 -2.86155e+00
       H  4.58748e+00 -1.45834e+01 -3.96974e+00
       O -6.10354e+00 -9.45649e+00  6.17056e+00
       H -5.89092e+00 -9.07242e+00  7.03934e+00
       H -5.97315e+00 -1.03931e+01  6.31710e+00
       O -1.45757e+01 -2.54032e+00  1.79579e+01
       H -1.54676e+01 -2.81003e+00  1.78078e+01
       H -1.42422e+01 -3.13853e+00  1.72045e+01
       O -2.05356e+01 -1.39563e+01 -1.27477e+01
       H -2.03114e+01 -1.34713e+01 -1.35887e+01
       H -2.10898e+01 -1.33024e+01 -1.22536e+01
       O  6.83613e-01 -1.65070e+01 -8.89464e+00
       H  9.82161e-01 -1.58563e+01 -8.25296e+00
       H  1.43533e+00 -1.66057e+01 -9.46323e+00
       O -1.73302e+01 -2.09615e+01 -1.46281e+01
       H -1.76697e+01 -2.00523e+01 -1.47810e+01
       H -1.73782e+01 -2.10209e+01 -1.36509e+01
       O -3.17697e+01 -2.73148e+01  2.36059e+01
       H -3.24676e+01 -2.77767e+01  2.30545e+01
       H -3.08948e+01 -2.72755e+01  2.30653e+01
       O  2.05811e+01  2.48658e+01  2.59829e+01
       H  2.15700e+01  2.50174e+01  2.59527e+01
       H  2.05416e+01  2.39485e+01  2.62413e+01
       O -2.46257e+00 -1.67121e+01 -8.56728e+00
       H -3.12025e+00 -1.73529e+01 -8.85729e+00
       H -2.21071e+00 -1.70782e+01 -7.68792e+00
       O -1.13245e+01 -9.15525e+00 -1.23418e+01
       H -1.03336e+01 -9.18717e+00 -1.23275e+01
       H -1.15137e+01 -8.17046e+00 -1.22715e+01
       O -1.65657e+01 -2.90680e+00  7.00820e+00
       H -1.65807e+01 -3.87844e+00  6.79220e+00
       H -1.59051e+01 -2.62293e+00  6.31262e+00
       O -1.20493e+01 -1.74668e+01 -2.56700e+01
       H -1.29414e+01 -1.79334e+01 -2.54690e+01
       H -1.14559e+01 -1.81217e+01 -2.60084e+01
       O -2.00195e+01 -1.47261e+01 -2.29245e+01
       H -1.98120e+01 -1.47430e+01 -2.39141e+01
       H -2.08384e+01 -1.41132e+01 -2.29476e+01
       O -4.02077e+00 -1.17450e+01 -1.30374e+01
       H -3.70579e+00 -1.26755e+01 -1.28991e+01
       H -4.38825e+00 -1.17958e+01 -1.38922e+01
       O -1.52786e+01 -1.16254e+01 -1.72267e+01
       H -1.44863e+01 -1.11157e+01 -1.71657e+01
       H -1.55852e+01 -1.16317e+01 -1.63105e+01
       O -1.40784e+01 -1.72883e+01 -1.49151e+01
       H -1.39220e+01 -1.71334e+01 -1.57922e+01
       H -1.42237e+01 -1.83216e+01 -1.49395e+01
       O -1.40672e+01 -1.22557e+01 -8.78879e+00
       H -1.43859e+01 -1.31267e+01 -8.54385e+00
       H -1.35426e+01 -1.24543e+01 -9.56544e+00
       O -1.31588e+01 -1.67757e+01 -9.65731e+00
       H -1.39606e+01 -1.69191e+01 -9.13037e+00
       H -1.24032e+01 -1.72208e+01 -9.12718e+00
       O  1.69535e+01 -1.33119e+01 -1.26675e+01
       H  1.76005e+01 -1.31719e+01 -1.19800e+01
       H  1.66898e+01 -1.42309e+01 -1.26050e+01
       O -6.91850e+00 -2.60761e+01 -2.01860e+00
       H -7.60947e+00 -2.56459e+01 -1.47938e+00
       H -7.05297e+00 -2.55813e+01 -2.86270e+00
       O -2.14927e+01 -2.39424e+01  1.15237e+01
       H -2.20021e+01 -2.38731e+01  1.23021e+01
       H -2.09893e+01 -2.31271e+01  1.16241e+01
       O -1.17727e+01 -1.04409e+01 -7.15411e+00
       H -1.22926e+01 -1.11577e+01 -7.51973e+00
       H -1.17128e+01 -9.92725e+00 -7.97685e+00
       O -1.52237e+01  8.89117e-03 -1.67792e+01
       H -1.45093e+01  1.19911e-02 -1.73942e+01
       H -1.47531e+01  1.79156e-01 -1.59598e+01
       O  2.98726e+01 -1.75931e+01  1.36010e+00
       H  2.92046e+01 -1.76003e+01  6.32932e-01
       H  2.98745e+01 -1.66995e+01  1.71047e+00
       O  1.40805e+01 -1.61505e+01 -2.50826e+01
       H  1.38735e+01 -1.65466e+01 -2.42131e+01
       H  1.33078e+01 -1.55691e+01 -2.51736e+01
       O  5.17077e+00 -2.54307e+01 -1.35322e+00
       H  4.22551e+00 -2.53000e+01 -1.57841e+00
       H  5.57257e+00 -2.47542e+01 -1.92659e+00
       O -2.33903e+01 -1.64186e+01 -2.38772e+01
       H -2.26198e+01 -1.69424e+01 -2.35961e+01
       H -2.40850e+01 -1.70080e+01 -2.33947e+01
       O -5.30040e-01 -1.24101e+01 -1.35827e+01
       H -1.28104e-01 -1.30965e+01 -1.30337e+01
       H -1.26263e+00 -1.29439e+01 -1.39729e+01
       O  2.53731e+00 -1.01524e+01 -8.27126e+00
       H  3.30010e+00 -9.76157e+00 -8.82353e+00
       H  2.74563e+00 -9.67695e+00 -7.43486e+00
       O -9.15054e+00 -4.65347e+00 -9.71150e-01
       H -8.14808e+00 -4.44490e+00 -9.10132e-01
       H -9.10636e+00 -5.56319e+00 -6.47684e-01
       O -1.48610e+01  1.35128e+01 -9.64021e+00
       H -1.57790e+01  1.33191e+01 -9.71703e+00
       H -1.48689e+01  1.38141e+01 -8.72527e+00
       O  9.50530e-01 -1.19864e+01 -2.45917e+01
       H  2.77927e-01 -1.12285e+01 -2.46449e+01
       H  1.40102e+00 -1.16293e+01 -2.38399e+01
       O -2.21055e+01 -1.04266e+01  2.46785e+01
       H -2.18288e+01 -1.09919e+01  2.39504e+01
       H -2.29213e+01 -1.08790e+01  2.48705e+01
       O  2.11054e+01 -1.27766e+01  3.64834e+01
       H  2.19541e+01 -1.32593e+01  3.67059e+01
       H  2.07217e+01 -1.32911e+01  3.57747e+01
       O -1.07747e+01 -9.82333e+00 -1.51893e+01
       H -1.09417e+01 -8.89946e+00 -1.53719e+01
       H -1.07719e+01 -9.75404e+00 -1.42102e+01
       O -1.59483e+01 -1.50204e+01 -1.99812e+01
       H -1.65120e+01 -1.42727e+01 -1.96969e+01
       H -1.65337e+01 -1.57450e+01 -1.98103e+01
       O -2.04012e+01 -7.97825e+00  2.84802e+01
       H -2.08525e+01 -7.90531e+00  2.93865e+01
       H -1.97441e+01 -8.62325e+00  2.86718e+01
       O -9.87200e+00 -1.32599e+01 -2.36441e+01
       H -1.08120e+01 -1.31686e+01 -2.34365e+01
       H -9.66086e+00 -1.41894e+01 -2.35663e+01
       O -8.95041e+00 -1.54317e+01 -2.11905e+01
       H -9.65151e+00 -1.57892e+01 -2.06289e+01
       H -8.51870e+00 -1.62132e+01 -2.15858e+01
       O -5.94231e+00  1.98545e+01 -7.31073e+00
       H -5.88367e+00  1.92732e+01 -6.47800e+00
       H -5.13843e+00  1.96241e+01 -7.89664e+00
       O -1.28764e+01  2.02026e+00 -9.74742e+00
       H -1.22145e+01  1.53858e+00 -1.02463e+01
       H -1.33142e+01  2.30803e+00 -1.06460e+01
       O -1.06284e+01 -1.09546e+01  2.23950e+00
       H -1.09334e+01 -1.12990e+01  3.06657e+00
       H -9.90898e+00 -1.04283e+01  2.60027e+00
       O -4.29969e+00 -1.67646e+01 -2.53139e+01
       H -4.12434e+00 -1.72758e+01 -2.60824e+01
       H -3.91697e+00 -1.59082e+01 -2.55685e+01
       O  1.36536e+01 -3.53613e+00 -1.16475e+01
       H  1.45973e+01 -3.78608e+00 -1.14067e+01
       H  1.35285e+01 -2.62731e+00 -1.12799e+01
       O -1.42059e+01 -5.60272e+00  1.87307e+01
       H -1.41457e+01 -5.52355e+00  1.77866e+01
       H -1.43045e+01 -6.51905e+00  1.89065e+01
       O  2.44001e+01 -1.86667e+01  1.64563e+01
       H  2.47119e+01 -1.81444e+01  1.56927e+01
       H  2.35143e+01 -1.88840e+01  1.61391e+01
       O -2.28679e+01 -1.06581e+01  1.66995e+01
       H -2.32248e+01 -1.04475e+01  1.76009e+01
       H -2.33834e+01 -9.99245e+00  1.60937e+01
       O -1.69204e+01  2.62211e+01 -1.18185e+01
       H -1.67923e+01  2.53536e+01 -1.14647e+01
       H -1.62535e+01  2.67614e+01 -1.13384e+01
       O -1.52025e+01 -9.18089e+00  1.66438e+01
       H -1.62014e+01 -9.32095e+00  1.65247e+01
       H -1.49741e+01 -8.20587e+00  1.65066e+01
       O  2.25067e+01 -2.35565e+01  1.13039e+01
       H  2.17307e+01 -2.38905e+01  1.17336e+01
       H  2.29018e+01 -2.43932e+01  1.09418e+01
       O  9.14545e+00 -2.72414e+01 -1.41752e+01
       H  9.05843e+00 -2.68775e+01 -1.32402e+01
       H  9.38007e+00 -2.64452e+01 -1.46465e+01
       O -1.26989e+01 -1.85938e+01 -4.80988e+00
       H -1.23204e+01 -1.94814e+01 -5.02132e+00
       H -1.23904e+01 -1.84843e+01 -3.87098e+00
       O  7.22049e+00 -1.80670e+01 -4.43005e+00
       H  6.99126e+00 -1.70477e+01 -4.39553e+00
       H  7.50116e+00 -1.81019e+01 -3.47331e+00
       O -1.12034e+01  1.86986e+01 -2.37543e+01
       H -1.09310e+01  1.96229e+01  2.34184e+01
       H -1.15978e+01  1.89752e+01  2.45269e+01
       O  1.56468e+01 -1.78624e+01  2.07016e+01
       H  1.51270e+01 -1.74222e+01 -2.60681e+01
       H  1.50379e+01 -1.77089e+01 -2.75187e+01
       O  8.42205e-01  1.27245e+01  6.02122e+00
       H  1.39208e+00  1.33004e+01  6.55057e+00
       H  1.51906e+00  1.20198e+01  5.90833e+00
       O -1.20683e+01  2.48797e+01  1.83305e+01
       H -1.26472e+01  2.46328e+01  1.75405e+01
       H -1.26144e+01  2.45726e+01  1.91564e+01
       O  2.53066e+01 -6.45414e+00  3.73722e+01
       H  2.51766e+01 -6.77324e+00  3.83280e+01
       H  2.44095e+01 -6.49187e+00  3.70399e+01
       O  1.54250e+01 -1.52211e+01 -1.56612e+01
       H  1.53526e+01 -1.57837e+01 -1.48608e+01
       H  1.46164e+01 -1.46948e+01 -1.56504e+01
       O -5.26011e+00 -1.44707e+01 -1.78604e+01
       H -5.85878e+00 -1.42196e+01 -1.71066e+01
       H -5.20086e+00 -1.35576e+01 -1.81969e+01
       O -1.52973e+01 -2.00809e+01 -6.90172e+00
       H -1.44915e+01  2.77503e+01 -6.46965e+00
       H -1.58149e+01 -2.05801e+01 -6.20259e+00
       O  3.08426e+01  1.17386e+00  2.46338e+01
       H  3.09026e+01  5.18978e-01  2.53859e+01
       H  2.98986e+01  1.02120e+00  2.44491e+01
       O -2.28182e+01  6.68817e+00 -3.05746e+00
       H -2.20299e+01  6.77511e+00 -2.43788e+00
       H -2.25978e+01  7.22769e+00 -3.80604e+00
       O  1.76116e+01 -8.73461e+00 -1.61642e+01
       H  1.80996e+01 -9.52028e+00 -1.63966e+01
       H  1.83012e+01 -8.28603e+00 -1.55052e+01
       O -1.13879e+01 -1.58111e+01  2.78203e+01
       H -1.22377e+01 -1.56204e+01  2.73691e+01
       H -1.17721e+01 -1.57297e+01  2.87098e+01
       O -1.26564e+01 -8.01999e+00 -2.32778e-01
       H -1.34820e+01 -8.08590e+00 -7.80001e-01
       H -1.22664e+01 -8.95414e+00 -3.25113e-01
       O -2.86516e-02 -1.98266e+01 -1.66632e+01
       H  1.46798e-01 -2.03491e+01 -1.58484e+01
       H  4.83514e-01 -1.90741e+01 -1.64220e+01
       O -1.76503e+01 -8.70308e+00 -1.21293e+01
       H -1.70867e+01 -7.88590e+00 -1.22970e+01
       H -1.70252e+01 -9.30312e+00 -1.17786e+01
       O -2.09171e+01 -2.05190e+01  2.16924e+01
       H -2.04487e+01 -2.08348e+01  2.25067e+01
       H -2.09639e+01 -2.13734e+01  2.12786e+01
       O  2.57305e+00 -3.07593e+01 -1.08909e+00
       H  2.43447e+00 -3.08819e+01 -1.34620e-01
       H  3.22168e+00 -3.00040e+01 -1.03563e+00
       O -8.73431e+00 -1.47298e+01  1.82335e+01
       H -8.44399e+00 -1.38831e+01  1.78917e+01
       H -8.80336e+00 -1.45199e+01  1.91995e+01
       O  1.23532e+00 -4.60718e+00 -6.93948e+00
       H  6.37852e-01 -4.22655e+00 -7.59742e+00
       H  1.04706e+00 -4.15034e+00 -6.11374e+00
       O -1.40883e+01 -9.61757e+00 -1.30720e+01
       H -1.44152e+01 -8.75172e+00 -1.26390e+01
       H -1.32324e+01 -9.75740e+00 -1.25882e+01
       O  2.00273e+01 -2.02385e+01 -1.55087e+01
       H  1.99539e+01 -1.93153e+01 -1.56636e+01
       H  1.96066e+01 -2.01580e+01 -1.45848e+01
       O -1.41872e+01 -2.25773e+01 -7.87909e+00
       H -1.43425e+01 -2.28933e+01 -6.99725e+00
       H -1.45936e+01 -2.17337e+01 -7.75045e+00
       O -1.24491e+01 -1.43571e+01 -1.61699e+01
       H -1.30338e+01 -1.46769e+01 -1.68729e+01
       H -1.19040e+01 -1.37320e+01 -1.67078e+01
       O  1.75442e+00 -2.45346e+01 -2.54779e+01
       H  2.08395e+00 -2.52056e+01 -2.60281e+01
       H  1.91248e+00 -2.49597e+01 -2.46111e+01
       O  1.43131e+01 -2.26003e+01 -1.79612e+01
       H  1.52813e+01 -2.27253e+01 -1.77760e+01
       H  1.42173e+01 -2.16723e+01 -1.81771e+01
       O  1.61764e+01  2.26239e+01  1.07900e+01
       H  1.65472e+01  2.23213e+01  1.16790e+01
       H  1.64136e+01  2.35800e+01  1.07706e+01
       O -1.03548e+01 -3.58924e+00 -1.20478e+01
       H -9.62748e+00 -2.95719e+00 -1.20550e+01
       H -1.09371e+01 -3.32684e+00 -1.13033e+01
       O -5.65865e-01 -3.41063e+01 -4.09104e+00
       H  9.27078e-02  1.39080e+01 -4.64723e+00
       H -1.35169e+00 -3.35081e+01 -4.09646e+00
       O -3.03966e+00 -1.11088e+01 -2.54127e+01
       H -3.83117e+00 -1.05929e+01 -2.54760e+01
       H -3.25038e+00 -1.17458e+01 -2.46806e+01
       O -2.08372e+01 -3.62024e+01  9.40496e+00
       H -2.12715e+01 -3.54877e+01  8.86597e+00
       H -1.99592e+01 -3.58596e+01  9.51022e+00
       O -3.60935e+00  8.91150e+00 -5.44359e+00
       H -2.91071e+00  9.48399e+00 -5.11591e+00
       H -3.39130e+00  8.07899e+00 -4.98422e+00
       O -1.84508e+01 -9.94300e+00 -4.02865e+00
       H -1.74970e+01 -1.02538e+01 -3.84263e+00
       H -1.84178e+01 -9.98071e+00 -5.05591e+00
       O  2.87120e+01 -1.49479e+01  1.57053e+01
       H  2.77670e+01 -1.48361e+01  1.58595e+01
       H  2.86997e+01 -1.55041e+01  1.48841e+01
       O -7.32367e+00 -2.00151e+01  2.79104e+00
       H -7.79007e+00 -1.92225e+01  3.11706e+00
       H -7.71279e+00 -2.02221e+01  1.92292e+00
       O  1.21945e+01 -1.54787e+01 -7.52057e+00
       H  1.26126e+01 -1.48292e+01 -8.04375e+00
       H  1.27558e+01  3.11911e+01 -7.63051e+00
       O -1.45710e+01  1.86169e+01  4.60301e+00
       H -1.42647e+01  1.89936e+01  5.39876e+00
       H -1.38221e+01  1.80451e+01  4.26958e+00
       O -4.94075e+00 -7.47633e+00 -2.70412e+01
       H -4.04714e+00 -7.50829e+00 -2.67765e+01
       H -5.28108e+00 -7.97506e+00 -2.63381e+01
       O  2.48755e+01 -1.39676e+01  2.44720e+01
       H  2.46199e+01 -1.48654e+01  2.41415e+01
       H  2.46251e+01 -1.34802e+01  2.37514e+01
       O  1.14040e+01  1.40579e+00 -9.12712e-01
       H  1.12395e+01  9.29018e-01 -6.84732e-02
       H  1.06045e+01  1.97953e+00 -9.76499e-01
       O  9.38397e+00 -9.90456e+00 -2.57098e+01
       H  8.70420e+00 -1.00872e+01 -2.50271e+01
       H  9.67924e+00 -8.97383e+00 -2.57101e+01
       O -1.02557e+01  2.42643e+01 -4.88198e+00
       H -1.00185e+01  2.43218e+01 -5.82053e+00
       H -9.55410e+00  2.37367e+01 -4.49800e+00
       O -8.49901e+00 -1.84023e+01 -2.25285e+01
       H -7.62832e+00 -1.83227e+01 -2.21274e+01
       H -8.76286e+00 -1.91736e+01 -2.21061e+01
       O  4.99958e-01 -3.16676e+00 -1.50184e+01
       H  1.13786e+00 -2.46598e+00 -1.48321e+01
       H  1.04233e+00 -3.61054e+00 -1.57258e+01
       O -4.22057e+00 -1.00181e+01  1.10610e+01
       H -3.67546e+00 -9.16842e+00  1.11996e+01
       H -5.00264e+00 -9.75298e+00  1.15556e+01
       O -9.76210e+00 -2.16795e+01 -2.59010e+01
       H -9.73890e+00 -2.09041e+01 -2.52934e+01
       H -9.99868e+00 -2.11842e+01 -2.66883e+01
       O  9.47730e+00 -8.30819e-01 -3.04842e+01
       H  9.01395e+00 -1.61881e+00 -3.08760e+01
       H  9.96959e+00 -1.23212e+00 -2.97501e+01
       O -1.01494e+01 -9.48727e+00  2.07399e+01
       H -1.06128e+01 -8.78125e+00  2.13358e+01
       H -1.08600e+01 -1.01207e+01  2.06180e+01
       O -1.16096e+01 -1.77986e+01 -7.56305e+00
       H -1.21832e+01 -1.78113e+01 -6.87346e+00
       H -1.07514e+01 -1.79792e+01 -7.10344e+00
       O -2.00484e+01 -5.22962e+00  2.77484e+01
       H -2.02484e+01 -6.17733e+00  2.77116e+01
       H -2.02450e+01 -5.00549e+00  2.86993e+01
       O  9.52430e+00 -7.67781e+00 -1.27923e+01
       H  1.00676e+01 -7.11580e+00 -1.34034e+01
       H  8.79872e+00 -6.98876e+00 -1.26976e+01
       O -6.80000e+00  2.79864e+00 -7.15166e+00
       H -6.74423e+00  3.60218e+00 -6.65365e+00
       H -7.65407e+00  2.47478e+00 -6.85640e+00
       O -3.87154e+00 -2.47013e+00 -2.90694e+01
       H -4.51633e+00 -1.94774e+00 -2.85854e+01
       H -4.29070e+00 -3.36295e+00 -2.88964e+01
       O -4.80311e+00 -1.48696e+01 -4.68974e+00
       H -4.62353e+00 -1.58178e+01 -4.92806e+00
       H -4.19356e+00 -1.44639e+01 -5.33605e+00
       O -7.70424e-01 -1.49782e+01 -2.73694e+01
       H -1.13160e+00 -1.58554e+01 -2.75490e+01
       H  1.91675e-01 -1.51775e+01 -2.73248e+01
       O -3.95157e-02 -6.30398e+00 -1.33229e+01
       H -4.71994e-01 -6.95246e+00 -1.27144e+01
       H  8.92910e-01 -6.43514e+00 -1.31036e+01
       O -5.46553e+00  2.74673e+01 -1.04661e+01
       H -5.77227e+00  2.70377e+01 -1.12668e+01
       H -6.04250e+00  2.70949e+01 -9.79168e+00
       O -3.17470e+00 -2.30121e+01 -7.88400e+00
       H -2.66734e+00 -2.22094e+01 -8.17764e+00
       H -3.33989e+00 -2.34032e+01 -8.77257e+00
       O -1.78407e+00  1.16372e+01 -1.10822e+01
       H -1.92903e+00  1.06933e+01 -1.07036e+01
       H -2.23931e+00  1.20390e+01 -1.03571e+01
       O -7.89400e+00 -1.79236e+01 -2.66942e+01
       H -7.01181e+00 -1.83466e+01 -2.66772e+01
       H -7.56856e+00 -1.70039e+01 -2.67083e+01
       O -2.34530e+01 -1.31622e+01 -1.46850e+01
       H -2.41970e+01 -1.26503e+01 -1.50705e+01
       H -2.34019e+01 -1.27728e+01 -1.37651e+01
       O -2.04287e+01 -1.93266e+01 -1.91567e+01
       H -2.04888e+01 -1.90828e+01 -1.82159e+01
       H -2.06073e+01 -1.84234e+01 -1.95329e+01
       O  1.08176e+01  2.33058e+01 -1.15087e+01
       H  1.16386e+01  2.36328e+01 -1.16909e+01
       H  1.05632e+01  2.31152e+01 -1.24456e+01
       O -9.54586e+00  2.24328e+01 -1.84521e+01
       H -8.71974e+00  2.27783e+01 -1.89015e+01
       H -9.72255e+00  2.16343e+01 -1.90120e+01
       O  2.14821e+01 -2.30603e+01  1.45075e+01
       H  2.06328e+01 -2.27326e+01  1.42000e+01
       H  2.21025e+01 -2.23925e+01  1.42084e+01
       O -5.97103e+00 -8.32980e+00 -2.23138e+01
       H -6.05874e+00 -9.28907e+00 -2.25997e+01
       H -5.99523e+00 -8.42067e+00 -2.13567e+01
       O  1.79818e+01  2.79219e+01 -9.25351e+00
       H  1.78333e+01  2.76332e+01 -8.36653e+00
       H  1.89127e+01  2.81269e+01 -9.13790e+00
       O -2.20053e+01 -9.24199e+00 -7.82767e+00
       H -2.13641e+01 -8.75633e+00 -7.25371e+00
       H -2.15499e+01 -9.18227e+00 -8.71642e+00
       O -2.60021e+01 -1.54847e+00 -7.48153e+00
       H -2.64458e+01 -2.21669e+00 -7.99536e+00
       H -2.60176e+01 -1.98440e+00 -6.55656e+00
       O -7.29600e+00 -7.68451e+00 -9.33683e+00
       H -7.81015e+00 -6.91684e+00 -9.05176e+00
       H -7.25384e+00 -7.63486e+00 -1.03035e+01
       O -9.41474e+00  1.15187e+01  1.83218e+01
       H -9.11150e+00  1.20382e+01  1.90803e+01
       H -1.01111e+01  1.21278e+01  1.80173e+01
       O  2.15980e+00  2.26458e+01 -6.69909e+00
       H  1.43619e+00 -2.41737e+01 -6.83375e+00
       H  2.02763e+00  2.24559e+01 -5.82864e+00
       O -2.23149e+01 -1.68782e+01 -7.33677e+00
       H -2.14242e+01 -1.72655e+01 -7.27998e+00
       H -2.25260e+01 -1.67087e+01 -6.40426e+00
       O -1.94518e+01  1.89575e+01 -1.20119e+01
       H -1.89185e+01  1.94154e+01 -1.13529e+01
       H -1.93628e+01  1.95754e+01 -1.27959e+01
       O -1.54951e+01 -1.44688e+01 -8.06976e+00
       H -1.63327e+01 -1.42113e+01 -8.47317e+00
       H -1.58262e+01 -1.50750e+01 -7.35253e+00
       O -6.17877e-01 -6.07552e+00 -1.58922e+01
       H -5.21911e-01 -6.07371e+00 -1.48718e+01
       H  1.64379e-01 -5.57624e+00 -1.61148e+01
       O -6.57098e+00 -1.10736e+01 -2.27023e+01
       H -7.50118e+00 -1.13653e+01 -2.27947e+01
       H -6.23762e+00 -1.18330e+01 -2.22473e+01
       O -3.51665e+00 -2.22866e+01 -1.55467e+01
       H -3.85532e+00 -2.21174e+01 -1.64887e+01
       H -3.17068e+00 -2.32206e+01 -1.57057e+01
       O  2.10720e+01 -1.46223e+01 -8.15477e+00
       H  2.18102e+01 -1.48294e+01 -7.55518e+00
       H  2.14175e+01 -1.46084e+01 -9.06651e+00
       O -1.20665e+01 -9.67946e+00 -2.30584e+01
       H -1.20915e+01 -1.02528e+01 -2.39156e+01
       H -1.14874e+01 -8.98782e+00 -2.33285e+01
       O -2.84120e+01 -1.09252e+01 -1.71385e+01
       H -2.91841e+01 -1.10711e+01 -1.77445e+01
       H -2.86800e+01 -1.14668e+01 -1.63647e+01
       O -2.37475e+00 -1.11521e+01 -3.77729e+00
       H -2.24893e+00 -1.21055e+01 -3.46196e+00