14
# CELL(abcABC): 1000.00000  1000.00000  1000.00000    90.00000    90.00000    90.00000  Step:         104  Bead:       0 positions{angstrom}  cell{angstrom}
       C -6.77429e-01  6.16851e-01 -1.17882e-01
       C  5.55936e-01 -4.30496e-02  5.22171e-01
       C -1.92979e+00 -3.01057e-01 -7.11243e-02
       C -1.00313e+00  2.00353e+00  6.09146e-01
       H -1.25605e+00  1.86899e+00  1.61620e+00
       H -1.84887e+00  2.53996e+00  1.74698e-01
       H -1.40604e-01  2.69113e+00  6.45795e-01
       H -1.68966e+00 -1.21080e+00 -6.18852e-01
       H -2.85345e+00  7.34689e-02 -5.02438e-01
       H -2.16204e+00 -6.26300e-01  9.25009e-01
       H  1.44960e+00  4.10300e-04 -8.98896e-02
       H  3.64393e-01 -1.11024e+00  6.66907e-01
       H  8.44622e-01  3.21964e-01  1.46061e+00
       H -4.79351e-01  8.05261e-01 -1.21014e+00
