4
# CELL(abcABC): 1000.00000  1000.00000  1000.00000    90.00000    90.00000    90.00000  Step:           0  Bead:       0 positions{angstrom}  cell{angstrom}
       O -3.11593e+00  1.06624e+00  3.39522e-01
       H -3.11407e+00  5.81407e-01  1.15265e+00
       H -3.26452e+00  1.98364e+00  5.32760e-01
       H -3.54692e+00  5.80700e-01 -3.89124e-01
4
# CELL(abcABC): 1000.00000  1000.00000  1000.00000    90.00000    90.00000    90.00000  Step:           1  Bead:       0 positions{angstrom}  cell{angstrom}
       O -3.11421e+00  1.06644e+00  3.38965e-01
       H -3.12381e+00  5.73417e-01  1.15765e+00
       H -3.26495e+00  1.98414e+00  5.32928e-01
       H -3.56410e+00  5.84995e-01 -3.85450e-01
4
# CELL(abcABC): 1000.00000  1000.00000  1000.00000    90.00000    90.00000    90.00000  Step:           2  Bead:       0 positions{angstrom}  cell{angstrom}
       O -3.11249e+00  1.06640e+00  3.38416e-01
       H -3.13385e+00  5.64786e-01  1.16370e+00
       H -3.26496e+00  1.98684e+00  5.31269e-01
       H -3.58122e+00  5.91522e-01 -3.81124e-01
4
# CELL(abcABC): 1000.00000  1000.00000  1000.00000    90.00000    90.00000    90.00000  Step:           3  Bead:       0 positions{angstrom}  cell{angstrom}
       O -3.11068e+00  1.06616e+00  3.37861e-01
       H -3.14349e+00  5.54911e-01  1.17103e+00
       H -3.26640e+00  1.99254e+00  5.28580e-01
       H -3.59898e+00  5.99624e-01 -3.76962e-01
4
# CELL(abcABC): 1000.00000  1000.00000  1000.00000    90.00000    90.00000    90.00000  Step:           4  Bead:       0 positions{angstrom}  cell{angstrom}
       O -3.10884e+00  1.06572e+00  3.37519e-01
       H -3.15345e+00  5.44594e-01  1.17567e+00
       H -3.26822e+00  2.00008e+00  5.23918e-01
       H -3.61640e+00  6.09374e-01 -3.71502e-01
4
# CELL(abcABC): 1000.00000  1000.00000  1000.00000    90.00000    90.00000    90.00000  Step:           5  Bead:       0 positions{angstrom}  cell{angstrom}
       O -3.10688e+00  1.06495e+00  3.37397e-01
       H -3.16423e+00  5.35716e-01  1.17763e+00
       H -3.27153e+00  2.00907e+00  5.18896e-01
       H -3.63344e+00  6.21443e-01 -3.66500e-01
4
# CELL(abcABC): 1000.00000  1000.00000  1000.00000    90.00000    90.00000    90.00000  Step:           6  Bead:       0 positions{angstrom}  cell{angstrom}
       O -3.10481e+00  1.06410e+00  3.37516e-01
       H -3.17493e+00  5.28977e-01  1.17577e+00
       H -3.27607e+00  2.01567e+00  5.11658e-01
       H -3.65103e+00  6.35150e-01 -3.59295e-01
4
# CELL(abcABC): 1000.00000  1000.00000  1000.00000    90.00000    90.00000    90.00000  Step:           7  Bead:       0 positions{angstrom}  cell{angstrom}
       O -3.10282e+00  1.06303e+00  3.37644e-01
       H -3.18408e+00  5.24360e-01  1.17227e+00
       H -3.28115e+00  2.02025e+00  5.04235e-01
       H -3.66845e+00  6.52112e-01 -3.50407e-01
4
# CELL(abcABC): 1000.00000  1000.00000  1000.00000    90.00000    90.00000    90.00000  Step:           8  Bead:       0 positions{angstrom}  cell{angstrom}
       O -3.10095e+00  1.06191e+00  3.38009e-01
       H -3.19204e+00  5.21947e-01  1.16537e+00
       H -3.28533e+00  2.02160e+00  4.95492e-01
       H -3.68585e+00  6.70880e-01 -3.40571e-01
4
# CELL(abcABC): 1000.00000  1000.00000  1000.00000    90.00000    90.00000    90.00000  Step:           9  Bead:       0 positions{angstrom}  cell{angstrom}
       O -3.09920e+00  1.06087e+00  3.38388e-01
       H -3.19965e+00  5.20721e-01  1.15740e+00
       H -3.28830e+00  2.02046e+00  4.87046e-01
       H -3.70310e+00  6.89744e-01 -3.30153e-01
4
# CELL(abcABC): 1000.00000  1000.00000  1000.00000    90.00000    90.00000    90.00000  Step:          10  Bead:       0 positions{angstrom}  cell{angstrom}
       O -3.09753e+00  1.05979e+00  3.38977e-01
       H -3.20669e+00  5.21239e-01  1.14713e+00
       H -3.29072e+00  2.01739e+00  4.77969e-01
       H -3.72024e+00  7.09495e-01 -3.20161e-01
4
# CELL(abcABC): 1000.00000  1000.00000  1000.00000    90.00000    90.00000    90.00000  Step:          11  Bead:       0 positions{angstrom}  cell{angstrom}
       O -3.09593e+00  1.05878e+00  3.39726e-01
       H -3.21297e+00  5.23808e-01  1.13498e+00
       H -3.29383e+00  2.01167e+00  4.69001e-01
       H -3.73612e+00  7.28740e-01 -3.10935e-01
4
# CELL(abcABC): 1000.00000  1000.00000  1000.00000    90.00000    90.00000    90.00000  Step:          12  Bead:       0 positions{angstrom}  cell{angstrom}
       O -3.09458e+00  1.05791e+00  3.40475e-01
       H -3.21743e+00  5.26904e-01  1.12322e+00
       H -3.29634e+00  2.00293e+00  4.59991e-01
       H -3.75067e+00  7.48097e-01 -3.02054e-01
4
# CELL(abcABC): 1000.00000  1000.00000  1000.00000    90.00000    90.00000    90.00000  Step:          13  Bead:       0 positions{angstrom}  cell{angstrom}
       O -3.09340e+00  1.05717e+00  3.41029e-01
       H -3.22137e+00  5.30577e-01  1.11381e+00
       H -3.29680e+00  1.99322e+00  4.52426e-01
       H -3.76495e+00  7.65912e-01 -2.93869e-01
4
# CELL(abcABC): 1000.00000  1000.00000  1000.00000    90.00000    90.00000    90.00000  Step:          14  Bead:       0 positions{angstrom}  cell{angstrom}
       O -3.09241e+00  1.05651e+00  3.41268e-01
       H -3.22363e+00  5.33301e-01  1.10821e+00
       H -3.29599e+00  1.98449e+00  4.46720e-01
       H -3.77930e+00  7.82474e-01 -2.86363e-01
4
# CELL(abcABC): 1000.00000  1000.00000  1000.00000    90.00000    90.00000    90.00000  Step:          15  Bead:       0 positions{angstrom}  cell{angstrom}
       O -3.09146e+00  1.05579e+00  3.40933e-01
       H -3.22767e+00  5.34425e-01  1.10904e+00
       H -3.29506e+00  1.97787e+00  4.43486e-01
       H -3.79114e+00  7.99258e-01 -2.78626e-01
4
# CELL(abcABC): 1000.00000  1000.00000  1000.00000    90.00000    90.00000    90.00000  Step:          16  Bead:       0 positions{angstrom}  cell{angstrom}
       O -3.09068e+00  1.05502e+00  3.40223e-01
       H -3.23055e+00  5.34178e-01  1.11378e+00
       H -3.29357e+00  1.97489e+00  4.42886e-01
       H -3.80221e+00  8.14698e-01 -2.71518e-01
4
# CELL(abcABC): 1000.00000  1000.00000  1000.00000    90.00000    90.00000    90.00000  Step:          17  Bead:       0 positions{angstrom}  cell{angstrom}
       O -3.08992e+00  1.05422e+00  3.39166e-01
       H -3.23255e+00  5.33773e-01  1.12243e+00
       H -3.29232e+00  1.97562e+00  4.44047e-01
       H -3.81353e+00  8.27085e-01 -2.64528e-01
4
# CELL(abcABC): 1000.00000  1000.00000  1000.00000    90.00000    90.00000    90.00000  Step:          18  Bead:       0 positions{angstrom}  cell{angstrom}
       O -3.08925e+00  1.05329e+00  3.37821e-01
       H -3.23531e+00  5.34181e-01  1.13391e+00
       H -3.28903e+00  1.97926e+00  4.47832e-01
       H -3.82472e+00  8.37910e-01 -2.58467e-01
4
# CELL(abcABC): 1000.00000  1000.00000  1000.00000    90.00000    90.00000    90.00000  Step:          19  Bead:       0 positions{angstrom}  cell{angstrom}
       O -3.08882e+00  1.05235e+00  3.36257e-01
       H -3.23721e+00  5.35122e-01  1.14728e+00
       H -3.28538e+00  1.98468e+00  4.53493e-01
       H -3.83329e+00  8.46477e-01 -2.52666e-01
4
# CELL(abcABC): 1000.00000  1000.00000  1000.00000    90.00000    90.00000    90.00000  Step:          20  Bead:       0 positions{angstrom}  cell{angstrom}
       O -3.08856e+00  1.05142e+00  3.34650e-01
       H -3.23839e+00  5.37819e-01  1.15932e+00
       H -3.28133e+00  1.99171e+00  4.61672e-01
       H -3.84027e+00  8.51450e-01 -2.47368e-01
4
# CELL(abcABC): 1000.00000  1000.00000  1000.00000    90.00000    90.00000    90.00000  Step:          21  Bead:       0 positions{angstrom}  cell{angstrom}
       O -3.08858e+00  1.05050e+00  3.33112e-01
       H -3.23921e+00  5.41738e-01  1.16912e+00
       H -3.27409e+00  1.99979e+00  4.72704e-01
       H -3.84635e+00  8.54017e-01 -2.43785e-01
4
# CELL(abcABC): 1000.00000  1000.00000  1000.00000    90.00000    90.00000    90.00000  Step:          22  Bead:       0 positions{angstrom}  cell{angstrom}
       O -3.08890e+00  1.04957e+00  3.31749e-01
       H -3.24025e+00  5.46714e-01  1.17797e+00
       H -3.26290e+00  2.00750e+00  4.83561e-01
       H -3.85138e+00  8.56173e-01 -2.41869e-01
4
# CELL(abcABC): 1000.00000  1000.00000  1000.00000    90.00000    90.00000    90.00000  Step:          23  Bead:       0 positions{angstrom}  cell{angstrom}
       O -3.08952e+00  1.04872e+00  3.30724e-01
       H -3.24021e+00  5.54281e-01  1.18373e+00
       H -3.24882e+00  2.01415e+00  4.95737e-01
       H -3.85576e+00  8.55427e-01 -2.43522e-01
4
# CELL(abcABC): 1000.00000  1000.00000  1000.00000    90.00000    90.00000    90.00000  Step:          24  Bead:       0 positions{angstrom}  cell{angstrom}
       O -3.09043e+00  1.04791e+00  3.29887e-01
       H -3.23867e+00  5.62800e-01  1.18660e+00
       H -3.23233e+00  2.01952e+00  5.08562e-01
       H -3.85928e+00  8.54460e-01 -2.45937e-01
4
# CELL(abcABC): 1000.00000  1000.00000  1000.00000    90.00000    90.00000    90.00000  Step:          25  Bead:       0 positions{angstrom}  cell{angstrom}
       O -3.09158e+00  1.04735e+00  3.29150e-01
       H -3.23636e+00  5.71994e-01  1.18748e+00
       H -3.21427e+00  2.02126e+00  5.21464e-01
       H -3.86147e+00  8.52419e-01 -2.48021e-01
4
# CELL(abcABC): 1000.00000  1000.00000  1000.00000    90.00000    90.00000    90.00000  Step:          26  Bead:       0 positions{angstrom}  cell{angstrom}
       O -3.09296e+00  1.04706e+00  3.28572e-01
       H -3.23333e+00  5.81792e-01  1.18511e+00
       H -3.19419e+00  2.01946e+00  5.33607e-01
       H -3.86255e+00  8.48978e-01 -2.48607e-01
4
# CELL(abcABC): 1000.00000  1000.00000  1000.00000    90.00000    90.00000    90.00000  Step:          27  Bead:       0 positions{angstrom}  cell{angstrom}
       O -3.09467e+00  1.04696e+00  3.28182e-01
       H -3.22987e+00  5.93234e-01  1.18007e+00
       H -3.17269e+00  2.01368e+00  5.44462e-01
       H -3.86034e+00  8.44947e-01 -2.48235e-01
4
# CELL(abcABC): 1000.00000  1000.00000  1000.00000    90.00000    90.00000    90.00000  Step:          28  Bead:       0 positions{angstrom}  cell{angstrom}
       O -3.09651e+00  1.04706e+00  3.27858e-01
       H -3.22704e+00  6.03068e-01  1.17380e+00
       H -3.14952e+00  2.00540e+00  5.54304e-01
       H -3.85725e+00  8.41797e-01 -2.46669e-01
4
# CELL(abcABC): 1000.00000  1000.00000  1000.00000    90.00000    90.00000    90.00000  Step:          29  Bead:       0 positions{angstrom}  cell{angstrom}
       O -3.09849e+00  1.04729e+00  3.27641e-01
       H -3.22325e+00  6.12330e-01  1.16604e+00
       H -3.12659e+00  1.99533e+00  5.62647e-01
       H -3.85255e+00  8.38849e-01 -2.43815e-01
4
# CELL(abcABC): 1000.00000  1000.00000  1000.00000    90.00000    90.00000    90.00000  Step:          30  Bead:       0 positions{angstrom}  cell{angstrom}
       O -3.10052e+00  1.04757e+00  3.27435e-01
       H -3.21900e+00  6.20802e-01  1.16022e+00
       H -3.10355e+00  1.98455e+00  5.69768e-01
       H -3.84760e+00  8.36780e-01 -2.41837e-01
4
# CELL(abcABC): 1000.00000  1000.00000  1000.00000    90.00000    90.00000    90.00000  Step:          31  Bead:       0 positions{angstrom}  cell{angstrom}
       O -3.10267e+00  1.04783e+00  3.27296e-01
       H -3.21330e+00  6.26828e-01  1.15687e+00
       H -3.07983e+00  1.97547e+00  5.74525e-01
       H -3.84291e+00  8.35616e-01 -2.41031e-01
4
# CELL(abcABC): 1000.00000  1000.00000  1000.00000    90.00000    90.00000    90.00000  Step:          32  Bead:       0 positions{angstrom}  cell{angstrom}
       O -3.10471e+00  1.04826e+00  3.26965e-01
       H -3.20879e+00  6.27761e-01  1.15717e+00
       H -3.05575e+00  1.96930e+00  5.78699e-01
       H -3.83900e+00  8.34082e-01 -2.40256e-01
4
# CELL(abcABC): 1000.00000  1000.00000  1000.00000    90.00000    90.00000    90.00000  Step:          33  Bead:       0 positions{angstrom}  cell{angstrom}
       O -3.10662e+00  1.04885e+00  3.26541e-01
       H -3.20518e+00  6.24603e-01  1.16172e+00
       H -3.03168e+00  1.96441e+00  5.81500e-01
       H -3.83642e+00  8.32706e-01 -2.40889e-01
4
# CELL(abcABC): 1000.00000  1000.00000  1000.00000    90.00000    90.00000    90.00000  Step:          34  Bead:       0 positions{angstrom}  cell{angstrom}
       O -3.10823e+00  1.04948e+00  3.26302e-01
       H -3.20149e+00  6.18133e-01  1.16829e+00
       H -3.00997e+00  1.96169e+00  5.82723e-01
       H -3.83621e+00  8.31980e-01 -2.44891e-01
4
# CELL(abcABC): 1000.00000  1000.00000  1000.00000    90.00000    90.00000    90.00000  Step:          35  Bead:       0 positions{angstrom}  cell{angstrom}
       O -3.10972e+00  1.05002e+00  3.26229e-01
       H -3.19641e+00  6.09002e-01  1.17507e+00
       H -2.99018e+00  1.96264e+00  5.82661e-01
       H -3.83748e+00  8.31599e-01 -2.50440e-01
4
# CELL(abcABC): 1000.00000  1000.00000  1000.00000    90.00000    90.00000    90.00000  Step:          36  Bead:       0 positions{angstrom}  cell{angstrom}
       O -3.11109e+00  1.05039e+00  3.26408e-01
       H -3.19136e+00  5.97976e-01  1.18098e+00
       H -2.97115e+00  1.96723e+00  5.79702e-01
       H -3.83979e+00  8.32090e-01 -2.56231e-01
4
# CELL(abcABC): 1000.00000  1000.00000  1000.00000    90.00000    90.00000    90.00000  Step:          37  Bead:       0 positions{angstrom}  cell{angstrom}
       O -3.11240e+00  1.05074e+00  3.26764e-01
       H -3.18591e+00  5.86594e-01  1.18714e+00
       H -2.95268e+00  1.97274e+00  5.74062e-01
       H -3.84298e+00  8.32498e-01 -2.62408e-01
4
# CELL(abcABC): 1000.00000  1000.00000  1000.00000    90.00000    90.00000    90.00000  Step:          38  Bead:       0 positions{angstrom}  cell{angstrom}
       O -3.11345e+00  1.05099e+00  3.27611e-01
       H -3.18164e+00  5.74584e-01  1.18955e+00
       H -2.93530e+00  1.97777e+00  5.65862e-01
       H -3.84789e+00  8.35451e-01 -2.70060e-01
4
# CELL(abcABC): 1000.00000  1000.00000  1000.00000    90.00000    90.00000    90.00000  Step:          39  Bead:       0 positions{angstrom}  cell{angstrom}
       O -3.11462e+00  1.05128e+00  3.28675e-01
       H -3.17682e+00  5.62181e-01  1.18928e+00
       H -2.91874e+00  1.98144e+00  5.56330e-01
       H -3.85076e+00  8.39568e-01 -2.77138e-01
4
# CELL(abcABC): 1000.00000  1000.00000  1000.00000    90.00000    90.00000    90.00000  Step:          40  Bead:       0 positions{angstrom}  cell{angstrom}
       O -3.11581e+00  1.05144e+00  3.29853e-01
       H -3.17214e+00  5.50614e-01  1.18641e+00
       H -2.90317e+00  1.98445e+00  5.46360e-01
       H -3.85216e+00  8.45576e-01 -2.83005e-01
4
# CELL(abcABC): 1000.00000  1000.00000  1000.00000    90.00000    90.00000    90.00000  Step:          41  Bead:       0 positions{angstrom}  cell{angstrom}
       O -3.11699e+00  1.05150e+00  3.31245e-01
       H -3.16794e+00  5.40820e-01  1.17948e+00
       H -2.88826e+00  1.98649e+00  5.34856e-01
       H -3.85254e+00  8.52411e-01 -2.86672e-01
4
# CELL(abcABC): 1000.00000  1000.00000  1000.00000    90.00000    90.00000    90.00000  Step:          42  Bead:       0 positions{angstrom}  cell{angstrom}
       O -3.11828e+00  1.05164e+00  3.32909e-01
       H -3.16249e+00  5.30321e-01  1.16890e+00
       H -2.87439e+00  1.98683e+00  5.22134e-01
       H -3.85138e+00  8.60386e-01 -2.89776e-01
4
# CELL(abcABC): 1000.00000  1000.00000  1000.00000    90.00000    90.00000    90.00000  Step:          43  Bead:       0 positions{angstrom}  cell{angstrom}
       O -3.11955e+00  1.05169e+00  3.34749e-01
       H -3.15748e+00  5.21719e-01  1.15522e+00
       H -2.86166e+00  1.98653e+00  5.08387e-01
       H -3.84887e+00  8.68446e-01 -2.91557e-01
4
# CELL(abcABC): 1000.00000  1000.00000  1000.00000    90.00000    90.00000    90.00000  Step:          44  Bead:       0 positions{angstrom}  cell{angstrom}
       O -3.12080e+00  1.05180e+00  3.36681e-01
       H -3.15243e+00  5.13216e-01  1.13912e+00
       H -2.85007e+00  1.98371e+00  4.93244e-01
       H -3.84579e+00  8.78032e-01 -2.90980e-01
4
# CELL(abcABC): 1000.00000  1000.00000  1000.00000    90.00000    90.00000    90.00000  Step:          45  Bead:       0 positions{angstrom}  cell{angstrom}
       O -3.12192e+00  1.05199e+00  3.38685e-01
       H -3.14805e+00  5.05135e-01  1.12175e+00
       H -2.83888e+00  1.97828e+00  4.76755e-01
       H -3.84349e+00  8.88453e-01 -2.88932e-01
4
# CELL(abcABC): 1000.00000  1000.00000  1000.00000    90.00000    90.00000    90.00000  Step:          46  Bead:       0 positions{angstrom}  cell{angstrom}
       O -3.12306e+00  1.05230e+00  3.40647e-01
       H -3.14379e+00  4.97328e-01  1.10466e+00
       H -2.82866e+00  1.97037e+00  4.59663e-01
       H -3.83985e+00  8.99253e-01 -2.85895e-01
4
# CELL(abcABC): 1000.00000  1000.00000  1000.00000    90.00000    90.00000    90.00000  Step:          47  Bead:       0 positions{angstrom}  cell{angstrom}
       O -3.12415e+00  1.05261e+00  3.42577e-01
       H -3.13940e+00  4.88201e-01  1.08990e+00
       H -2.81880e+00  1.96172e+00  4.41981e-01
       H -3.83686e+00  9.12181e-01 -2.84086e-01
4
# CELL(abcABC): 1000.00000  1000.00000  1000.00000    90.00000    90.00000    90.00000  Step:          48  Bead:       0 positions{angstrom}  cell{angstrom}
       O -3.12519e+00  1.05311e+00  3.44275e-01
       H -3.13427e+00  4.76409e-01  1.07852e+00
       H -2.80904e+00  1.95344e+00  4.24224e-01
       H -3.83520e+00  9.24305e-01 -2.81908e-01
4
# CELL(abcABC): 1000.00000  1000.00000  1000.00000    90.00000    90.00000    90.00000  Step:          49  Bead:       0 positions{angstrom}  cell{angstrom}
       O -3.12626e+00  1.05370e+00  3.45607e-01
       H -3.12867e+00  4.62306e-01  1.07123e+00
       H -2.79775e+00  1.94536e+00  4.07589e-01
       H -3.83510e+00  9.37164e-01 -2.79125e-01
4
# CELL(abcABC): 1000.00000  1000.00000  1000.00000    90.00000    90.00000    90.00000  Step:          50  Bead:       0 positions{angstrom}  cell{angstrom}
       O -3.12715e+00  1.05440e+00  3.46798e-01
       H -3.12290e+00  4.46752e-01  1.06690e+00
       H -2.78746e+00  1.93762e+00  3.92310e-01
       H -3.83700e+00  9.49364e-01 -2.78421e-01
4
# CELL(abcABC): 1000.00000  1000.00000  1000.00000    90.00000    90.00000    90.00000  Step:          51  Bead:       0 positions{angstrom}  cell{angstrom}
       O -3.12807e+00  1.05506e+00  3.47792e-01
       H -3.11693e+00  4.29832e-01  1.06466e+00
       H -2.77641e+00  1.93183e+00  3.78362e-01
       H -3.83946e+00  9.61487e-01 -2.78012e-01
4
# CELL(abcABC): 1000.00000  1000.00000  1000.00000    90.00000    90.00000    90.00000  Step:          52  Bead:       0 positions{angstrom}  cell{angstrom}
       O -3.12900e+00  1.05574e+00  3.48732e-01
       H -3.11081e+00  4.12599e-01  1.06401e+00
       H -2.76435e+00  1.92734e+00  3.64890e-01
       H -3.84296e+00  9.72403e-01 -2.78803e-01
4
# CELL(abcABC): 1000.00000  1000.00000  1000.00000    90.00000    90.00000    90.00000  Step:          53  Bead:       0 positions{angstrom}  cell{angstrom}
       O -3.12999e+00  1.05626e+00  3.49518e-01
       H -3.10358e+00  3.96765e-01  1.06297e+00
       H -2.75117e+00  1.92616e+00  3.53758e-01
       H -3.84759e+00  9.81159e-01 -2.79112e-01
4
# CELL(abcABC): 1000.00000  1000.00000  1000.00000    90.00000    90.00000    90.00000  Step:          54  Bead:       0 positions{angstrom}  cell{angstrom}
       O -3.13102e+00  1.05673e+00  3.49949e-01
       H -3.09594e+00  3.81755e-01  1.06269e+00
       H -2.73715e+00  1.92705e+00  3.45176e-01
       H -3.85295e+00  9.87907e-01 -2.77085e-01
4
# CELL(abcABC): 1000.00000  1000.00000  1000.00000    90.00000    90.00000    90.00000  Step:          55  Bead:       0 positions{angstrom}  cell{angstrom}
       O -3.13214e+00  1.05708e+00  3.50282e-01
       H -3.08843e+00  3.69416e-01  1.06207e+00
       H -2.72205e+00  1.92859e+00  3.39078e-01
       H -3.85778e+00  9.93207e-01 -2.75654e-01
4
# CELL(abcABC): 1000.00000  1000.00000  1000.00000    90.00000    90.00000    90.00000  Step:          56  Bead:       0 positions{angstrom}  cell{angstrom}
       O -3.13336e+00  1.05728e+00  3.50574e-01
       H -3.07834e+00  3.60484e-01  1.06034e+00
       H -2.70662e+00  1.92944e+00  3.33689e-01
       H -3.86390e+00  9.98122e-01 -2.73177e-01
4
# CELL(abcABC): 1000.00000  1000.00000  1000.00000    90.00000    90.00000    90.00000  Step:          57  Bead:       0 positions{angstrom}  cell{angstrom}
       O -3.13460e+00  1.05735e+00  3.50792e-01
       H -3.06625e+00  3.55640e-01  1.05707e+00
       H -2.69217e+00  1.92852e+00  3.31054e-01
       H -3.87079e+00  1.00267e+00 -2.70727e-01
4
# CELL(abcABC): 1000.00000  1000.00000  1000.00000    90.00000    90.00000    90.00000  Step:          58  Bead:       0 positions{angstrom}  cell{angstrom}
       O -3.13593e+00  1.05743e+00  3.50990e-01
       H -3.05269e+00  3.53624e-01  1.05145e+00
       H -2.67760e+00  1.92558e+00  3.30771e-01
       H -3.87777e+00  1.00643e+00 -2.67960e-01
4
# CELL(abcABC): 1000.00000  1000.00000  1000.00000    90.00000    90.00000    90.00000  Step:          59  Bead:       0 positions{angstrom}  cell{angstrom}
       O -3.13734e+00  1.05745e+00  3.51045e-01
       H -3.03784e+00  3.55114e-01  1.04381e+00
       H -2.66324e+00  1.92064e+00  3.33725e-01
       H -3.88460e+00  1.00950e+00 -2.64159e-01
4
# CELL(abcABC): 1000.00000  1000.00000  1000.00000    90.00000    90.00000    90.00000  Step:          60  Bead:       0 positions{angstrom}  cell{angstrom}
       O -3.13881e+00  1.05756e+00  3.51110e-01
       H -3.02372e+00  3.59176e-01  1.03446e+00
       H -2.64881e+00  1.91231e+00  3.36608e-01
       H -3.88980e+00  1.01200e+00 -2.58721e-01
4
# CELL(abcABC): 1000.00000  1000.00000  1000.00000    90.00000    90.00000    90.00000  Step:          61  Bead:       0 positions{angstrom}  cell{angstrom}
       O -3.14039e+00  1.05780e+00  3.51157e-01
       H -3.00846e+00  3.64970e-01  1.02355e+00
       H -2.63395e+00  1.90092e+00  3.39497e-01
       H -3.89476e+00  1.01381e+00 -2.51441e-01
4
# CELL(abcABC): 1000.00000  1000.00000  1000.00000    90.00000    90.00000    90.00000  Step:          62  Bead:       0 positions{angstrom}  cell{angstrom}
       O -3.14191e+00  1.05825e+00  3.51280e-01
       H -2.99375e+00  3.71320e-01  1.01152e+00
       H -2.62116e+00  1.88638e+00  3.42902e-01
       H -3.89819e+00  1.01482e+00 -2.44773e-01
4
# CELL(abcABC): 1000.00000  1000.00000  1000.00000    90.00000    90.00000    90.00000  Step:          63  Bead:       0 positions{angstrom}  cell{angstrom}
       O -3.14337e+00  1.05876e+00  3.51180e-01
       H -2.97850e+00  3.79051e-01  1.00005e+00
       H -2.60951e+00  1.86893e+00  3.46864e-01
       H -3.90200e+00  1.01655e+00 -2.35680e-01
4
# CELL(abcABC): 1000.00000  1000.00000  1000.00000    90.00000    90.00000    90.00000  Step:          64  Bead:       0 positions{angstrom}  cell{angstrom}
       O -3.14484e+00  1.05942e+00  3.50961e-01
       H -2.96179e+00  3.86457e-01  9.90430e-01
       H -2.59809e+00  1.84996e+00  3.51274e-01
       H -3.90675e+00  1.01765e+00 -2.26986e-01
4
# CELL(abcABC): 1000.00000  1000.00000  1000.00000    90.00000    90.00000    90.00000  Step:          65  Bead:       0 positions{angstrom}  cell{angstrom}
       O -3.14630e+00  1.06016e+00  3.50682e-01
       H -2.94570e+00  3.93011e-01  9.81190e-01
       H -2.58619e+00  1.83202e+00  3.55614e-01
       H -3.91153e+00  1.01726e+00 -2.17665e-01
4
# CELL(abcABC): 1000.00000  1000.00000  1000.00000    90.00000    90.00000    90.00000  Step:          66  Bead:       0 positions{angstrom}  cell{angstrom}
       O -3.14776e+00  1.06092e+00  3.50234e-01
       H -2.92964e+00  3.99921e-01  9.74608e-01
       H -2.57398e+00  1.81342e+00  3.60024e-01
       H -3.91659e+00  1.01686e+00 -2.08389e-01
4
# CELL(abcABC): 1000.00000  1000.00000  1000.00000    90.00000    90.00000    90.00000  Step:          67  Bead:       0 positions{angstrom}  cell{angstrom}
       O -3.14913e+00  1.06184e+00  3.49721e-01
       H -2.91338e+00  4.03214e-01  9.69514e-01
       H -2.56069e+00  1.79679e+00  3.64372e-01
       H -3.92439e+00  1.01551e+00 -1.99497e-01
4
# CELL(abcABC): 1000.00000  1000.00000  1000.00000    90.00000    90.00000    90.00000  Step:          68  Bead:       0 positions{angstrom}  cell{angstrom}
       O -3.15050e+00  1.06277e+00  3.49321e-01
       H -2.89682e+00  4.03257e-01  9.66337e-01
       H -2.54625e+00  1.78298e+00  3.66208e-01
       H -3.93365e+00  1.01465e+00 -1.91809e-01
4
# CELL(abcABC): 1000.00000  1000.00000  1000.00000    90.00000    90.00000    90.00000  Step:          69  Bead:       0 positions{angstrom}  cell{angstrom}
       O -3.15176e+00  1.06380e+00  3.48753e-01
       H -2.88132e+00  3.98907e-01  9.66545e-01
       H -2.53171e+00  1.77243e+00  3.67697e-01
       H -3.94369e+00  1.01311e+00 -1.84481e-01
4
# CELL(abcABC): 1000.00000  1000.00000  1000.00000    90.00000    90.00000    90.00000  Step:          70  Bead:       0 positions{angstrom}  cell{angstrom}
       O -3.15310e+00  1.06464e+00  3.48264e-01
       H -2.86668e+00  3.92939e-01  9.66664e-01
       H -2.51647e+00  1.76593e+00  3.67381e-01
       H -3.95242e+00  1.01222e+00 -1.76526e-01
4
# CELL(abcABC): 1000.00000  1000.00000  1000.00000    90.00000    90.00000    90.00000  Step:          71  Bead:       0 positions{angstrom}  cell{angstrom}
       O -3.15424e+00  1.06547e+00  3.47988e-01
       H -2.85453e+00  3.84382e-01  9.65315e-01
       H -2.50178e+00  1.76184e+00  3.64874e-01
       H -3.96111e+00  1.01178e+00 -1.68281e-01
4
# CELL(abcABC): 1000.00000  1000.00000  1000.00000    90.00000    90.00000    90.00000  Step:          72  Bead:       0 positions{angstrom}  cell{angstrom}
       O -3.15522e+00  1.06607e+00  3.47862e-01
       H -2.84431e+00  3.75340e-01  9.63343e-01
       H -2.48777e+00  1.76030e+00  3.61236e-01
       H -3.96983e+00  1.01273e+00 -1.60675e-01
4
# CELL(abcABC): 1000.00000  1000.00000  1000.00000    90.00000    90.00000    90.00000  Step:          73  Bead:       0 positions{angstrom}  cell{angstrom}
       O -3.15589e+00  1.06659e+00  3.48045e-01
       H -2.83691e+00  3.66068e-01  9.59649e-01
       H -2.47550e+00  1.76080e+00  3.55694e-01
       H -3.97883e+00  1.01333e+00 -1.54348e-01
4
# CELL(abcABC): 1000.00000  1000.00000  1000.00000    90.00000    90.00000    90.00000  Step:          74  Bead:       0 positions{angstrom}  cell{angstrom}
       O -3.15629e+00  1.06693e+00  3.48644e-01
       H -2.83213e+00  3.57341e-01  9.52623e-01
       H -2.46581e+00  1.76228e+00  3.47075e-01
       H -3.98696e+00  1.01524e+00 -1.48203e-01
4
# CELL(abcABC): 1000.00000  1000.00000  1000.00000    90.00000    90.00000    90.00000  Step:          75  Bead:       0 positions{angstrom}  cell{angstrom}
       O -3.15620e+00  1.06720e+00  3.49496e-01
       H -2.83084e+00  3.48392e-01  9.42843e-01
       H -2.45995e+00  1.76344e+00  3.37390e-01
       H -3.99548e+00  1.01872e+00 -1.42268e-01
4
# CELL(abcABC): 1000.00000  1000.00000  1000.00000    90.00000    90.00000    90.00000  Step:          76  Bead:       0 positions{angstrom}  cell{angstrom}
       O -3.15588e+00  1.06726e+00  3.50450e-01
       H -2.83164e+00  3.40588e-01  9.31995e-01
       H -2.45787e+00  1.76447e+00  3.26132e-01
       H -4.00191e+00  1.02453e+00 -1.35304e-01
4
# CELL(abcABC): 1000.00000  1000.00000  1000.00000    90.00000    90.00000    90.00000  Step:          77  Bead:       0 positions{angstrom}  cell{angstrom}
       O -3.15517e+00  1.06722e+00  3.51557e-01
       H -2.83524e+00  3.34584e-01  9.19220e-01
       H -2.46002e+00  1.76532e+00  3.14023e-01
       H -4.00742e+00  1.03029e+00 -1.27992e-01
4
# CELL(abcABC): 1000.00000  1000.00000  1000.00000    90.00000    90.00000    90.00000  Step:          78  Bead:       0 positions{angstrom}  cell{angstrom}
       O -3.15414e+00  1.06715e+00  3.52970e-01
       H -2.84239e+00  3.28535e-01  9.03998e-01
       H -2.46491e+00  1.76625e+00  3.00417e-01
       H -4.01164e+00  1.03653e+00 -1.21598e-01
4
# CELL(abcABC): 1000.00000  1000.00000  1000.00000    90.00000    90.00000    90.00000  Step:          79  Bead:       0 positions{angstrom}  cell{angstrom}
       O -3.15299e+00  1.06717e+00  3.54438e-01
       H -2.85207e+00  3.23164e-01  8.89120e-01
       H -2.47163e+00  1.76573e+00  2.85593e-01
       H -4.01356e+00  1.04206e+00 -1.15191e-01
4
# CELL(abcABC): 1000.00000  1000.00000  1000.00000    90.00000    90.00000    90.00000  Step:          80  Bead:       0 positions{angstrom}  cell{angstrom}
       O -3.15182e+00  1.06724e+00  3.55831e-01
       H -2.86267e+00  3.17654e-01  8.73979e-01
       H -2.48038e+00  1.76451e+00  2.71016e-01
       H -4.01283e+00  1.04768e+00 -1.07586e-01
4
# CELL(abcABC): 1000.00000  1000.00000  1000.00000    90.00000    90.00000    90.00000  Step:          81  Bead:       0 positions{angstrom}  cell{angstrom}
       O -3.15067e+00  1.06723e+00  3.57276e-01
       H -2.87186e+00  3.11972e-01  8.58600e-01
       H -2.49132e+00  1.76505e+00  2.56013e-01
       H -4.01093e+00  1.05303e+00 -1.00150e-01
4
# CELL(abcABC): 1000.00000  1000.00000  1000.00000    90.00000    90.00000    90.00000  Step:          82  Bead:       0 positions{angstrom}  cell{angstrom}
       O -3.14954e+00  1.06743e+00  3.58581e-01
       H -2.88045e+00  3.04053e-01  8.44958e-01
       H -2.50273e+00  1.76463e+00  2.40497e-01
       H -4.00882e+00  1.05824e+00 -9.16955e-02
4
# CELL(abcABC): 1000.00000  1000.00000  1000.00000    90.00000    90.00000    90.00000  Step:          83  Bead:       0 positions{angstrom}  cell{angstrom}
       O -3.14852e+00  1.06762e+00  3.59827e-01
       H -2.88860e+00  2.94611e-01  8.33042e-01
       H -2.51414e+00  1.76531e+00  2.24641e-01
       H -4.00540e+00  1.06387e+00 -8.37063e-02
4
# CELL(abcABC): 1000.00000  1000.00000  1000.00000    90.00000    90.00000    90.00000  Step:          84  Bead:       0 positions{angstrom}  cell{angstrom}
       O -3.14759e+00  1.06787e+00  3.61052e-01
       H -2.89494e+00  2.82473e-01  8.21513e-01
       H -2.52580e+00  1.76726e+00  2.08395e-01
       H -4.00219e+00  1.07020e+00 -7.53814e-02
4
# CELL(abcABC): 1000.00000  1000.00000  1000.00000    90.00000    90.00000    90.00000  Step:          85  Bead:       0 positions{angstrom}  cell{angstrom}