11135
# CELL(abcABC):   47.46614    47.46614    47.46614    90.00000    90.00000    90.00000  Step:       10000  Bead:       0 positions{angstrom}  cell{angstrom}
       C -8.41601e+00 -2.11808e+00 -1.85788e+00
       H -9.21800e+00 -1.44535e+00 -2.26141e+00
       H -8.79754e+00 -2.82195e+00 -1.14263e+00
       H -8.05784e+00 -2.66907e+00 -2.78672e+00
       C -7.34939e+00 -1.19566e+00 -1.43426e+00
       O -6.27490e+00 -1.06369e+00 -2.01654e+00
       N -7.56337e+00 -4.29712e-01 -3.21255e-01
       H -8.39293e+00 -5.22657e-01  1.92501e-01
       C -6.48953e+00  4.02903e-01  2.71436e-01
       H -5.80306e+00  5.89691e-01 -5.21094e-01
       C -7.00128e+00  1.70925e+00  7.86370e-01
       H -6.16662e+00  2.28930e+00  1.07751e+00
       H -7.72253e+00  1.70638e+00  1.63219e+00
       C -7.74796e+00  2.45217e+00 -3.27133e-01
       H -8.67137e+00  2.04304e+00 -4.38882e-01
       H -7.03521e+00  2.31764e+00 -1.17255e+00
       C -7.90711e+00  3.92703e+00 -1.75794e-01
       H -6.96598e+00  4.42077e+00  2.69602e-01
       H -8.69684e+00  4.20769e+00  5.19372e-01
       C -7.98702e+00  4.75171e+00 -1.52500e+00
       H -7.95684e+00  5.80595e+00 -1.23764e+00
       H -8.96323e+00  4.76739e+00 -1.96301e+00
       N -7.02555e+00  4.55974e+00 -2.62727e+00
       H -6.11519e+00  4.89263e+00 -2.31013e+00
       H -7.32351e+00  5.11689e+00 -3.69799e+00
       H -6.88514e+00  3.57602e+00 -2.76981e+00
       C -5.68622e+00 -3.23495e-01  1.38107e+00
       O -5.70066e+00  1.09194e-01  2.58171e+00
       N -4.73897e+00 -1.21755e+00  1.00692e+00
       H -4.84168e+00 -1.77515e+00  1.71935e-01
       H -4.25485e+00 -1.56297e+00  1.74334e+00
       O -1.01395e+01 -1.29248e+01 -2.40059e+01
       H -9.26719e+00 -1.28784e+01 -2.36559e+01
       H -1.01502e+01 -1.37938e+01 -2.44579e+01
       O -2.00378e+01 -8.56199e+00 -8.35613e+00
       H -2.01379e+01 -8.82267e+00 -7.42352e+00
       H -1.95351e+01 -7.72916e+00 -8.20730e+00
       O  8.90200e+00 -1.07060e+01  6.66222e-01
       H  8.73576e+00 -1.12356e+01 -1.71251e-01
       H  9.81395e+00 -1.10341e+01  9.08210e-01
       O -2.49431e+01 -1.27925e+01 -2.45024e+01
       H -2.56506e+01 -1.31789e+01 -2.49471e+01
       H -2.50221e+01 -1.18299e+01 -2.47842e+01
       O -1.25253e+01 -1.34019e+01 -2.28134e+01
       H -1.16080e+01 -1.33006e+01 -2.31979e+01
       H -1.24179e+01 -1.28051e+01 -2.20079e+01
       O  2.20772e+01 -2.13079e+01  2.01089e+01
       H  2.19728e+01 -2.20928e+01  2.06529e+01
       H  2.18208e+01 -2.05672e+01  2.06939e+01
       O -1.93146e+01 -1.10612e+01 -8.86161e+00
       H -1.93506e+01 -1.13044e+01 -7.89315e+00
       H -1.94416e+01 -1.00671e+01 -8.79285e+00
       O  1.92781e+01 -2.49598e+01 -1.21793e+01
       H  1.95039e+01 -2.57935e+01 -1.25847e+01
       H  1.85734e+01 -2.52427e+01 -1.15471e+01
       O -1.45442e+01 -1.90099e+01 -7.59067e+00
       H -1.37645e+01 -1.88650e+01 -7.02457e+00
       H -1.40241e+01 -1.93595e+01 -8.37466e+00
       O  1.07686e+01 -1.54923e+01 -1.07908e+01
       H  1.05498e+01 -1.63421e+01 -1.11340e+01
       H  9.83055e+00 -1.52598e+01 -1.06411e+01
       O -3.30758e+01 -1.11688e+01 -5.01183e+00
       H -3.27546e+01 -1.20537e+01 -5.29382e+00
       H -3.33991e+01 -1.08127e+01 -5.85880e+00
       O  1.24628e+01 -2.73929e+01 -9.20557e+00
       H  1.26575e+01 -2.72421e+01 -8.23159e+00
       H  1.22269e+01 -2.83027e+01 -9.14117e+00
       O  1.47134e+01  1.78543e+01 -9.09194e+00
       H  1.48341e+01  1.70381e+01 -8.70087e+00
       H  1.39657e+01  1.76185e+01 -9.73642e+00
       O -3.51823e+01 -1.36027e+01 -5.19160e+00
       H -3.47657e+01 -1.27901e+01 -4.84151e+00
       H -3.46569e+01 -1.37503e+01 -6.04263e+00
       O -6.07782e+00 -2.04973e+01 -2.67795e+01
       H -5.21882e+00 -2.02650e+01 -2.64594e+01
       H -6.42039e+00 -1.95564e+01 -2.68422e+01
       O -2.75368e+00 -1.18891e+01 -6.85571e+00
       H -2.86693e+00 -1.09873e+01 -6.72605e+00
       H -2.07199e+00 -1.20097e+01 -6.18558e+00
       O -8.60573e+00 -1.28386e+01 -3.28123e-01
       H -8.20848e+00 -1.18937e+01 -3.59902e-01
       H -8.96476e+00 -1.29534e+01 -1.20227e+00
       O -2.03459e+00 -1.83459e+01 -2.65824e+01
       H -2.23610e+00 -1.88493e+01 -2.74187e+01
       H -2.35418e+00 -1.74886e+01 -2.68537e+01
       O -2.64759e+00 -1.45616e+01 -1.15285e+01
       H -3.03523e+00 -1.44087e+01 -1.07008e+01
       H -1.72859e+00 -1.43793e+01 -1.14111e+01
       O -1.49781e+01  1.77726e+01  4.82733e+00
       H -1.46860e+01  1.69156e+01  4.53620e+00
       H -1.46800e+01  1.82755e+01  4.03545e+00
       O -2.31970e+01 -3.42717e+00 -9.33789e+00
       H -2.30216e+01 -3.95979e+00 -1.01196e+01
       H -2.40835e+01 -3.03812e+00 -9.56496e+00
       O -2.21505e+01 -1.36005e+01 -8.19942e+00
       H -2.27110e+01 -1.42816e+01 -7.86347e+00
       H -2.20376e+01 -1.30170e+01 -7.45613e+00
       O  2.04851e+01 -1.91976e+01 -2.06331e+01
       H  2.07529e+01 -1.84321e+01 -2.00682e+01
       H  2.12005e+01 -1.91614e+01 -2.13110e+01
       O -1.97527e+01 -1.86383e+01 -1.65156e+01
       H -2.03434e+01 -1.94767e+01 -1.66915e+01
       H -1.91783e+01 -1.88064e+01 -1.73141e+01
       O -4.44332e+00 -2.21623e+01 -1.62447e+01
       H -4.58653e+00 -2.30188e+01 -1.68045e+01
       H -4.54992e+00 -2.14668e+01 -1.69194e+01
       O -1.54123e+01 -2.30266e+01  2.36282e+01
       H -1.60952e+01 -2.30934e+01  2.29519e+01
       H -1.46820e+01 -2.33207e+01  2.31373e+01
       O -9.61183e+00 -3.38278e+01 -1.64400e+01
       H -9.24023e+00 -3.40764e+01 -1.72913e+01
       H -8.88893e+00 -3.34247e+01 -1.59588e+01
       O -3.50728e+00  3.56084e-01  1.86615e+01
       H -2.51943e+00  5.48099e-02  1.87284e+01
       H -3.50585e+00  6.17982e-01  1.77055e+01
       O -1.58546e+01 -1.20774e+00  1.22581e+00
       H -1.54397e+01 -2.06343e+00  1.44313e+00
       H -1.55617e+01 -7.20269e-01  2.02562e+00
       O -2.85519e+01 -1.37044e+01  2.21154e+01
       H -2.94402e+01 -1.36138e+01  2.17110e+01
       H -2.79912e+01 -1.34159e+01  2.13415e+01
       O -1.86695e+01 -1.52270e+01 -2.37025e+01
       H -1.80415e+01 -1.59079e+01 -2.34289e+01
       H -1.93971e+01 -1.55191e+01 -2.30862e+01
       O  2.48045e+00 -8.49335e+00 -2.40584e+01
       H  3.10915e+00 -9.12449e+00 -2.37265e+01
       H  2.78755e+00 -8.20404e+00 -2.49431e+01
       O  3.39820e+00 -7.42045e+00 -3.22915e+01
       H  3.72635e+00 -6.58208e+00 -3.20434e+01
       H  4.13983e+00 -7.91537e+00 -3.19074e+01
       O -1.01968e+01 -1.49579e+01  8.44471e+00
       H -1.05018e+01 -1.42442e+01  7.88781e+00
       H -1.07168e+01 -1.48305e+01  9.21859e+00
       O -1.54148e+01 -1.79318e+01 -1.59843e+01
       H -1.61774e+01 -1.76587e+01 -1.53987e+01
       H -1.56330e+01 -1.72888e+01 -1.67115e+01
       O -2.36809e+01 -1.89835e+01  1.77498e+01
       H -2.36050e+01 -1.98863e+01  1.80519e+01
       H -2.43655e+01 -1.90310e+01  1.70891e+01
       O -1.46042e+01 -2.30570e+01 -4.08317e+00
       H -1.44773e+01 -2.36908e+01 -4.80598e+00
       H -1.39050e+01 -2.24494e+01 -4.39059e+00
       O -7.54852e+00 -6.67361e+00 -3.55303e+01
       H -7.16851e+00 -7.07466e+00 -3.63302e+01
       H -6.89263e+00 -5.97970e+00 -3.53025e+01
       O -1.03276e+01  5.65637e+00 -1.15865e+01
       H -9.93269e+00  4.82003e+00 -1.20507e+01
       H -1.08316e+01  5.44938e+00 -1.07925e+01
       O -4.07967e+00 -3.48507e+01 -1.35698e+01
       H -5.00993e+00 -3.46178e+01 -1.34954e+01
       H -3.79684e+00 -3.46496e+01 -1.26869e+01
       O  1.87030e+01 -2.16077e+01 -1.15993e+01
       H  1.90603e+01 -2.16361e+01 -1.25073e+01
       H  1.78346e+01 -2.20526e+01 -1.16679e+01
       O -1.40532e+01 -7.02299e+00 -3.86953e+01
       H -1.41666e+01 -7.95452e+00  8.52660e+00
       H -1.49591e+01 -6.79346e+00 -3.87407e+01
       O  1.79089e+01 -2.51312e+01 -5.90537e+00
       H  1.75768e+01 -2.60195e+01 -6.03301e+00
       H  1.76372e+01 -2.46675e+01 -6.68935e+00
       O -2.12006e+01 -9.49925e+00 -2.00398e+01
       H -2.06890e+01 -1.01866e+01 -1.96460e+01
       H -2.20076e+01 -9.48042e+00 -1.94194e+01
       O -2.43654e+01 -1.96086e+01 -1.73677e+01
       H -2.38931e+01 -2.03751e+01 -1.77289e+01
       H -2.37279e+01 -1.90028e+01 -1.68977e+01
       O  1.86067e+00 -1.54461e+01  5.16720e+00
       H  2.30205e+00 -1.62420e+01  4.83833e+00
       H  8.93583e-01 -1.55783e+01  4.94820e+00
       O -1.80071e+01 -1.64951e+01  2.16069e+00
       H -1.88261e+01 -1.69719e+01  2.12221e+00
       H -1.73955e+01 -1.70523e+01  1.70342e+00
       O  2.22860e+00 -1.59417e+01 -1.25791e+01
       H  2.16619e+00 -1.60663e+01 -1.15489e+01
       H  1.52566e+00 -1.64091e+01 -1.29815e+01
       O  4.94009e+00 -6.70721e+00 -1.93100e+01
       H  4.34722e+00 -6.22591e+00 -1.87529e+01
       H  4.30792e+00 -7.43795e+00 -1.96610e+01
       O -1.91671e+01 -2.26852e+00 -2.23496e+01
       H -2.00597e+01 -2.02339e+00 -2.20247e+01
       H -1.94248e+01 -2.64918e+00 -2.32042e+01
       O -1.64435e+01 -1.08299e+01 -2.60299e+01
       H -1.71296e+01 -1.13418e+01 -2.56548e+01
       H -1.56971e+01 -1.12243e+01 -2.54982e+01
       O -1.55262e+01 -1.36051e+01 -2.21921e+01
       H -1.46251e+01 -1.39290e+01 -2.19854e+01
       H -1.53816e+01 -1.33846e+01 -2.31513e+01
       O -8.83860e+00 -1.40881e+01 -2.93831e+01
       H -7.98476e+00 -1.40125e+01 -2.88441e+01
       H -9.34941e+00 -1.40879e+01 -2.85727e+01
       O -1.37155e+01  5.08242e-01 -9.36506e+00
       H -1.40263e+01  7.15166e-01 -1.02180e+01
       H -1.43462e+01 -2.04732e-01 -9.19105e+00
       O  6.31519e+00 -5.51371e+00 -2.14767e+01
       H  5.72028e+00 -5.57173e+00 -2.06660e+01
       H  6.53260e+00 -6.46083e+00 -2.16289e+01
       O -1.53466e+01 -1.07780e+01  2.25524e+00
       H -1.47570e+01 -1.02284e+01  1.79082e+00
       H -1.61352e+01 -1.06630e+01  1.69844e+00
       O -1.53688e+01 -7.65129e+00  1.53160e-01
       H -1.46206e+01 -8.24078e+00  3.33367e-01
       H -1.49047e+01 -6.97675e+00 -3.66967e-01
       O -2.13378e+00 -1.58368e+01 -2.78216e+01
       H -1.87149e+00 -1.54313e+01 -2.86458e+01
       H -1.29307e+00 -1.61871e+01 -2.74660e+01
       O -2.71996e+00 -1.91105e+01 -1.70994e+01
       H -2.39377e+00 -1.97767e+01 -1.77054e+01
       H -2.31993e+00 -1.93642e+01 -1.62466e+01
       O -1.68123e+00  2.55399e+01  4.89311e+00
       H -1.48731e+00  2.64672e+01  4.55556e+00
       H -1.02417e+00  2.50204e+01  4.31408e+00
       O -7.65002e+00 -1.00943e+01 -3.44316e+01
       H -7.52400e+00 -9.48984e+00 -3.37184e+01
       H -8.40986e+00 -1.06151e+01 -3.41665e+01
       O -1.86786e+00  2.22298e+01  9.76682e+00
       H -1.77582e+00  2.14433e+01  9.13178e+00
       H -2.23589e+00  2.28204e+01  9.11347e+00
       O -8.74804e+00 -9.67887e+00 -8.29512e+00
       H -9.56074e+00 -9.95372e+00 -8.63258e+00
       H -8.22633e+00 -1.04755e+01 -8.41365e+00
       O  8.85182e+00 -1.28143e+01 -1.38340e+00
       H  8.14154e+00 -1.34621e+01 -1.61805e+00
       H  9.40153e+00 -1.34853e+01 -8.26506e-01
       O -1.21677e+01 -5.57208e+00  4.55759e+00
       H -1.27339e+01 -6.24474e+00  4.28464e+00
       H -1.24481e+01 -4.85038e+00  3.99298e+00
       O -1.58217e+01 -4.81635e+00  1.18490e+01
       H -1.58961e+01 -4.60491e+00  1.08633e+01
       H -1.53461e+01 -4.01076e+00  1.21488e+01
       O -2.61850e+01 -1.27606e+01 -1.30037e+01
       H -2.67344e+01 -1.33404e+01 -1.35526e+01
       H -2.69019e+01 -1.22057e+01 -1.26082e+01
       O  1.12098e-01 -1.42974e+01 -1.32229e+01
       H  5.06190e-01 -1.34268e+01 -1.34507e+01
       H  9.15923e-01 -1.47898e+01 -1.30443e+01
       O -1.90760e+01 -2.29703e+01 -1.24397e+01
       H -1.83206e+01 -2.30076e+01 -1.30175e+01
       H -1.90932e+01 -2.38524e+01 -1.20075e+01
       O -3.90127e+01 -2.35540e+01  2.92666e+01
       H -3.88628e+01 -2.26952e+01  2.87807e+01
       H -3.87976e+01 -2.42830e+01  2.86155e+01
       O  2.07624e+01  2.30100e+01  2.72893e+01
       H  1.99601e+01  2.24649e+01  2.73957e+01
       H  2.04941e+01  2.39473e+01  2.73677e+01
       O -6.26838e+00 -1.17987e+01 -1.27274e+01
       H -6.41104e+00 -1.15235e+01 -1.36201e+01
       H -6.15744e+00 -1.09463e+01 -1.23085e+01
       O -1.13233e+01 -1.02952e+01 -8.42943e+00
       H -1.16315e+01 -9.55921e+00 -9.02879e+00
       H -1.16652e+01 -1.10542e+01 -8.89883e+00
       O -2.02676e+01 -1.59076e-01  5.54896e+00
       H -2.00010e+01 -3.38019e-01  6.48332e+00
       H -2.11009e+01  3.61418e-01  5.59795e+00
       O -1.31598e+01 -1.59956e+01 -2.38527e+01
       H -1.29326e+01 -1.51594e+01 -2.34237e+01
       H -1.35652e+01 -1.56995e+01 -2.47582e+01
       O -2.02958e+01 -1.68614e+01 -2.18386e+01
       H -2.03743e+01 -1.77911e+01 -2.15674e+01
       H -2.04913e+01 -1.63291e+01 -2.09939e+01
       O -4.72767e+00 -7.26419e+00 -1.46357e+01
       H -3.84738e+00 -7.53778e+00 -1.51211e+01
       H -5.34146e+00 -7.38960e+00 -1.54027e+01
       O -1.56212e+01 -1.38131e+01 -1.87259e+01
       H -1.63455e+01 -1.37184e+01 -1.94168e+01
       H -1.55914e+01 -1.29408e+01 -1.83162e+01
       O -1.13637e+01 -2.31452e+01 -1.52894e+01
       H -1.20646e+01 -2.36944e+01 -1.57434e+01
       H -1.18350e+01 -2.25050e+01 -1.47018e+01
       O -1.64610e+01 -7.61803e+00 -5.53036e+00
       H -1.55948e+01 -7.87110e+00 -5.14733e+00
       H -1.66257e+01 -8.46252e+00 -5.94625e+00
       O -9.27005e+00 -1.63525e+01 -8.62921e+00
       H -8.39071e+00 -1.63429e+01 -8.16658e+00
       H -9.20717e+00 -1.55017e+01 -9.06418e+00
       O  2.27914e+01 -1.48325e+01 -1.55393e+01
       H  2.27824e+01 -1.51064e+01 -1.65160e+01
       H  2.19650e+01 -1.52780e+01 -1.51513e+01
       O -1.24092e+01 -2.62450e+01 -1.69084e+00
       H -1.20147e+01 -2.53504e+01 -1.41075e+00
       H -1.33131e+01 -2.59210e+01 -1.78463e+00
       O -1.70150e+01 -2.56944e+01  7.27638e+00
       H -1.74523e+01 -2.58590e+01  8.11772e+00
       H -1.63896e+01 -2.64474e+01  7.30146e+00
       O -1.87579e+01 -3.79591e+00 -7.02891e+00
       H -1.91330e+01 -2.91595e+00 -7.26494e+00
       H -1.94322e+01 -4.15031e+00 -6.45292e+00
       O -9.99512e+00 -1.88152e+00 -1.21238e+01
       H -9.88661e+00 -9.58394e-01 -1.18816e+01
       H -1.07050e+01 -1.72968e+00 -1.27704e+01
       O  3.05636e+01 -1.35080e+01  5.67981e+00
       H  3.07334e+01 -1.44120e+01  5.38391e+00
       H  3.14732e+01 -1.31330e+01  5.45170e+00
       O  1.75167e+01 -1.57586e+01 -2.85384e+01
       H  1.71572e+01 -1.49389e+01 -2.83728e+01
       H  1.72920e+01 -1.59216e+01 -2.94684e+01
       O  5.63939e+00 -2.77629e+01 -7.31969e-01
       H  5.26985e+00 -2.85093e+01 -1.93491e-01
       H  4.87894e+00 -2.72189e+01 -1.01732e+00
       O -2.42046e+01 -1.63342e+01 -2.27050e+01
       H -2.47891e+01 -1.57033e+01 -2.22975e+01
       H -2.43193e+01 -1.70386e+01 -2.20854e+01
       O  4.14039e+00 -1.60327e+01 -9.16962e+00
       H  3.93954e+00 -1.50771e+01 -9.18248e+00
       H  3.31516e+00 -1.65331e+01 -9.22618e+00
       O  1.92046e+00 -8.24799e+00 -8.83180e+00
       H  1.82984e+00 -7.52889e+00 -9.50256e+00
       H  2.45040e+00 -7.75378e+00 -8.17056e+00
       O -7.77695e+00 -2.57802e+00 -9.90428e+00
       H -7.52376e+00 -1.71096e+00 -9.45246e+00
       H -8.05621e+00 -3.24644e+00 -9.21280e+00
       O -1.41379e+01  1.40618e+01 -1.35471e+01
       H -1.50194e+01  1.42288e+01 -1.36127e+01
       H -1.39602e+01  1.40896e+01 -1.25659e+01
       O -1.18362e+00 -8.26661e+00 -2.90799e+01
       H -1.38264e+00 -9.21048e+00 -2.90922e+01
       H -1.98856e-01 -8.32566e+00 -2.91867e+01
       O -2.31733e+01 -1.37506e+01  2.50951e+01
       H -2.34482e+01 -1.35702e+01  2.41975e+01
       H -2.35608e+01 -1.46643e+01  2.52291e+01
       O  2.14872e+01 -1.32875e+01  3.97726e+01
       H  2.18113e+01 -1.28171e+01  3.90200e+01
       H  2.16091e+01 -1.41942e+01  3.94462e+01
       O -1.28510e+01 -9.20643e+00 -1.99391e+01
       H -1.21806e+01 -8.47330e+00 -1.98179e+01
       H -1.36765e+01 -8.69165e+00 -1.96812e+01
       O -1.37819e+01 -1.60114e+01 -1.91995e+01
       H -1.29641e+01 -1.54164e+01 -1.92356e+01
       H -1.44934e+01 -1.53325e+01 -1.90894e+01
       O -2.00929e+01 -1.16203e+01  2.35515e+01
       H -2.08955e+01 -1.20822e+01  2.32109e+01
       H -2.00495e+01 -1.20499e+01  2.44212e+01
       O -1.16876e+01 -1.41531e+01 -1.92961e+01
       H -1.07887e+01 -1.38949e+01 -1.90306e+01
       H -1.18031e+01 -1.33121e+01 -1.97887e+01
       O -4.21707e+00 -1.79536e+01 -1.99744e+01
       H -4.51385e+00 -1.71049e+01 -1.96599e+01
       H -4.15269e+00 -1.84212e+01 -1.90955e+01
       O -1.25171e+01  2.25738e+01 -9.26084e+00
       H -1.30463e+01  2.21697e+01 -9.98388e+00
       H -1.16260e+01  2.25767e+01 -9.56055e+00
       O -1.24298e+01  5.21214e+00 -9.56829e+00
       H -1.32556e+01  5.23576e+00 -1.00541e+01
       H -1.23406e+01  6.15339e+00 -9.25625e+00
       O -9.64500e+00 -9.82446e+00  1.53350e+00
       H -8.70845e+00 -9.88721e+00  1.18943e+00
       H -1.02101e+01 -1.01565e+01  7.85790e-01
       O -4.56528e+00 -1.63280e+01 -3.46224e+01
       H -4.49553e+00 -1.71511e+01 -3.41745e+01
       H -3.75618e+00 -1.63361e+01 -3.52032e+01
       O  1.41185e+01 -3.24723e+00 -1.04141e+01
       H  1.49473e+01 -3.74321e+00 -1.01999e+01
       H  1.33934e+01 -3.90290e+00 -1.03433e+01
       O -1.44066e+01 -1.13126e+01  2.31517e+01
       H -1.36240e+01 -1.18194e+01  2.30926e+01
       H -1.42404e+01 -1.06829e+01  2.39177e+01
       O  2.45841e+01 -1.86838e+01  1.44165e+01
       H  2.51427e+01 -1.86373e+01  1.52265e+01
       H  2.52205e+01 -1.86421e+01  1.37385e+01
       O -2.58036e+01 -1.00417e+01  2.24331e+01
       H -2.64902e+01 -9.69734e+00  2.19419e+01
       H -2.51416e+01 -9.64901e+00  2.18943e+01
       O -1.81457e+01  3.04069e+01 -1.51056e+01
       H -1.90197e+01  3.01193e+01 -1.53088e+01
       H -1.78869e+01  3.00006e+01 -1.43128e+01
       O -1.76344e+01 -7.73092e+00  1.47977e+01
       H -1.71262e+01 -8.07782e+00  1.55344e+01
       H -1.68611e+01 -7.07923e+00  1.45149e+01
       O  2.27645e+01 -2.95840e+01  9.12196e+00
       H  2.22577e+01 -2.88790e+01  8.69270e+00
       H  2.28617e+01 -2.91073e+01  1.00211e+01
       O  8.36307e+00 -2.66843e+01 -1.13632e+01
       H  9.33783e+00 -2.67222e+01 -1.12588e+01
       H  8.04129e+00 -2.74739e+01 -1.08086e+01
       O -9.45415e+00 -1.91779e+01 -4.87911e+00
       H -9.24644e+00 -2.01667e+01 -4.82780e+00
       H -8.98883e+00 -1.88957e+01 -4.10078e+00
       O  1.03320e+01 -1.65387e+01 -6.90009e+00
       H  9.50458e+00 -1.71727e+01 -7.08192e+00
       H  9.98451e+00 -1.56930e+01 -7.06792e+00
       O -1.03640e+01  1.86965e+01 -2.52317e+01
       H -1.06219e+01  1.79766e+01  2.16906e+01
       H -1.08934e+01  1.86748e+01  2.29941e+01
       O  1.75630e+01 -1.77401e+01  1.66186e+01
       H  1.72911e+01 -1.87214e+01 -3.08814e+01
       H  1.71629e+01 -1.74455e+01 -3.16813e+01
       O  2.96158e+00  1.75389e+01  5.78830e+00
       H  2.93629e+00  1.66578e+01  6.36064e+00
       H  2.02691e+00  1.78534e+01  5.73431e+00
       O -1.14778e+01  2.62768e+01  1.50211e+01
       H -1.16177e+01  2.58209e+01  1.41744e+01
       H -1.12820e+01  2.55128e+01  1.56082e+01
       O  2.21487e+01 -6.86046e+00  4.08134e+01
       H  2.31300e+01 -6.63971e+00  4.08710e+01
       H  2.19179e+01 -6.70033e+00  3.98563e+01
       O  1.25338e+01 -1.53046e+01 -1.62438e+01
       H  1.19708e+01 -1.48503e+01 -1.55733e+01
       H  1.24540e+01 -1.62439e+01 -1.59637e+01
       O -1.52829e+00 -1.63733e+01 -1.96919e+01
       H -1.57788e+00 -1.58026e+01 -2.05127e+01
       H -1.78575e+00 -1.57288e+01 -1.89683e+01
       O -1.24868e+01 -2.17507e+01 -5.44553e+00
       H -1.25504e+01  2.55041e+01 -6.36818e+00
       H -1.23129e+01 -2.07845e+01 -5.38017e+00
       O  3.49094e+01  8.06906e-01  2.69357e+01
       H  3.57177e+01  7.94479e-01  2.74584e+01
       H  3.43459e+01  5.80261e-02  2.72799e+01
       O -2.33812e+01  6.68215e+00 -5.75104e+00
       H -2.42452e+01  6.74074e+00 -6.12004e+00
       H -2.34792e+01  6.29597e+00 -4.89030e+00
       O  2.18159e+01 -2.88101e+00 -1.06304e+01
       H  2.22121e+01 -2.79710e+00 -1.16250e+01
       H  2.10223e+01 -2.42857e+00 -1.08257e+01
       O -1.01117e+01 -1.93689e+01  2.62517e+01
       H -1.06765e+01 -1.89952e+01  2.69567e+01
       H -1.03485e+01 -1.87907e+01  2.55508e+01
       O -1.45051e+01 -5.13218e+00 -1.61253e+00
       H -1.36211e+01 -4.69069e+00 -1.54319e+00
       H -1.46303e+01 -5.25410e+00 -2.56967e+00
       O  4.79872e+00 -2.17794e+01 -1.27671e+01
       H  5.14300e+00 -2.15721e+01 -1.19123e+01
       H  4.51401e+00 -2.08119e+01 -1.30261e+01
       O -2.04545e+01 -1.01526e+01 -1.21007e+01
       H -1.99603e+01 -1.10027e+01 -1.20789e+01
       H -2.10609e+01 -1.02431e+01 -1.13868e+01
       O -2.24828e+01 -2.47362e+01  1.70034e+01
       H -2.21842e+01 -2.38807e+01  1.65478e+01
       H -2.22708e+01 -2.53008e+01  1.61872e+01
       O  3.97040e+00 -3.35319e+01  2.25073e+00
       H  4.37981e+00 -3.33127e+01  3.12502e+00
       H  3.56020e+00 -3.26593e+01  2.04578e+00
       O -9.56082e+00 -1.66246e+01  2.10249e+01
       H -1.00393e+01 -1.72809e+01  2.04681e+01
       H -9.75338e+00 -1.57875e+01  2.06098e+01
       O -8.38237e-01 -1.61815e+00 -8.60886e+00
       H -1.35839e+00 -1.39740e+00 -9.37725e+00
       H -9.26303e-01 -7.47166e-01 -8.17757e+00
       O -1.53132e+01 -8.81579e+00 -1.52827e+01
       H -1.46312e+01 -9.22495e+00 -1.58477e+01
       H -1.52594e+01 -7.90300e+00 -1.55959e+01
       O  1.56283e+01 -2.66953e+01 -1.70325e+01
       H  1.58637e+01 -2.60801e+01 -1.77540e+01
       H  1.63905e+01 -2.66667e+01 -1.64247e+01
       O -1.00607e+01 -2.20491e+01 -9.49934e+00
       H -9.93867e+00 -2.30328e+01 -9.71937e+00
       H -1.00814e+01 -2.17386e+01 -1.04360e+01
       O -1.52985e+01 -1.48996e+01 -1.47714e+01
       H -1.62331e+01 -1.50910e+01 -1.51047e+01
       H -1.56501e+01 -1.44078e+01 -1.40377e+01
       O  5.65162e+00 -2.52181e+01 -3.01767e+01
       H  4.67541e+00 -2.49446e+01 -3.02928e+01
       H  5.51408e+00 -2.58530e+01 -2.94447e+01
       O  1.21220e+01 -3.19050e+01 -1.52956e+01
       H  1.27978e+01 -3.12115e+01 -1.53221e+01
       H  1.25550e+01 -3.25900e+01 -1.47419e+01
       O  1.37038e+01  1.85751e+01  1.27044e+01
       H  1.39276e+01  1.79383e+01  1.20173e+01
       H  1.42009e+01  1.82339e+01  1.34300e+01
       O -1.01206e+01 -4.36401e+00 -1.10682e+01
       H -9.14125e+00 -4.52986e+00 -1.10976e+01
       H -1.01620e+01 -3.42026e+00 -1.12148e+01
       O -4.71703e-01 -3.52999e+01 -4.15578e-01
       H -5.03074e-01  1.12037e+01 -3.17170e-01
       H -4.49522e-01 -3.53365e+01 -1.36160e+00
       O -5.69554e+00 -9.91646e+00 -2.47934e+01
       H -6.64514e+00 -1.00690e+01 -2.45411e+01
       H -5.79229e+00 -9.21592e+00 -2.54214e+01
       O -2.24310e+01 -4.04836e+01  1.00162e+01
       H -2.25699e+01 -4.02527e+01  9.07528e+00
       H -2.33267e+01 -4.03852e+01  1.03560e+01
       O -3.22206e-01  9.14831e+00 -3.67176e+00
       H -1.14834e+00  8.91402e+00 -4.05079e+00
       H -2.83271e-01  8.58063e+00 -2.86060e+00
       O -1.97995e+01 -5.27138e+00 -5.04138e+00
       H -1.96347e+01 -4.56912e+00 -4.39858e+00
       H -1.96404e+01 -5.96686e+00 -4.44393e+00
       O  2.88704e+01 -1.72786e+01  1.61154e+01
       H  2.86225e+01 -1.66631e+01  1.68813e+01
       H  2.97785e+01 -1.75709e+01  1.64107e+01
       O -1.13718e+01 -1.78006e+01 -2.68662e+00
       H -1.07591e+01 -1.85219e+01 -2.39864e+00
       H -1.20144e+01 -1.78442e+01 -1.98366e+00
       O  7.96621e+00 -1.52191e+01 -1.02883e+01
       H  7.43573e+00 -1.44486e+01 -1.06151e+01
       H  8.18111e+00  3.25327e+01 -9.37453e+00
       O -1.53989e+01  2.19701e+01  3.54899e+00
       H -1.46190e+01  2.14674e+01  3.57244e+00
       H -1.61009e+01  2.12861e+01  3.26419e+00
       O -2.21376e+00 -1.25250e+01 -3.16006e+01
       H -2.32277e+00 -1.31589e+01 -3.23701e+01
       H -2.35065e+00 -1.16901e+01 -3.20646e+01
       O  2.62933e+01 -1.38419e+01  2.97980e+01
       H  2.64437e+01 -1.38509e+01  3.07618e+01
       H  2.54818e+01 -1.33625e+01  2.99519e+01
       O  8.55731e+00  1.66354e+00  1.98709e+00
       H  8.21574e+00  9.44930e-01  1.45838e+00
       H  7.88248e+00  1.81224e+00  2.58552e+00
       O  1.02409e+01 -1.30702e+01 -2.87773e+01
       H  1.01794e+01 -1.39067e+01 -2.92785e+01
       H  1.08816e+01 -1.34212e+01 -2.81293e+01
       O -1.14322e+01  2.15472e+01 -6.06950e+00
       H -1.08836e+01  2.12261e+01 -6.77578e+00
       H -1.16721e+01  2.07618e+01 -5.52965e+00
       O -6.91520e+00 -1.44851e+01 -2.71342e+01
       H -6.22398e+00 -1.39490e+01 -2.75364e+01
       H -6.43020e+00 -1.49821e+01 -2.64806e+01
       O  1.23069e+00 -2.31371e+00 -1.94546e+01
       H  1.86088e+00 -1.71468e+00 -1.89743e+01
       H  4.87660e-01 -1.68314e+00 -1.96349e+01
       O -5.19177e+00 -5.63024e+00  1.29566e+01
       H -5.10204e+00 -4.82176e+00  1.35034e+01
       H -4.26034e+00 -5.80198e+00  1.26786e+01
       O -8.16140e+00 -2.12077e+01 -2.86619e+01
       H -7.63475e+00 -2.09799e+01 -2.78879e+01
       H -7.48743e+00 -2.13214e+01 -2.93284e+01
       O  1.00106e+01  8.60890e-01 -2.94269e+01
       H  1.01434e+01 -1.22409e-02 -2.90034e+01
       H  1.06936e+01  1.30080e+00 -2.88630e+01
       O -7.99242e+00 -1.00029e+01  2.37422e+01
       H -8.84900e+00 -1.03844e+01  2.40080e+01
       H -8.33892e+00 -9.11135e+00  2.35274e+01
       O -7.89523e+00 -2.05124e+01 -8.61413e+00
       H -8.70347e+00 -2.10129e+01 -8.77445e+00
       H -7.40776e+00 -2.12017e+01 -8.11412e+00
       O -1.74423e+01 -1.06942e+01  2.71410e+01
       H -1.70402e+01 -1.07695e+01  2.62593e+01
       H -1.77796e+01 -1.15785e+01  2.72359e+01
       O  9.91532e+00 -8.00781e+00 -1.58212e+01
       H  1.05335e+01 -7.66262e+00 -1.51554e+01
       H  1.02419e+01 -7.42093e+00 -1.65369e+01
       O -8.61708e+00  9.67933e+00 -1.30162e+01
       H -9.28112e+00  1.03405e+01 -1.28041e+01
       H -8.32399e+00  1.00170e+01 -1.39256e+01
       O -5.62775e+00 -3.80197e+00 -3.18623e+01
       H -6.48543e+00 -3.78017e+00 -3.23880e+01
       H -5.78172e+00 -3.11362e+00 -3.12100e+01
       O -3.21314e+00 -1.27538e+01 -9.24982e+00
       H -3.07095e+00 -1.23783e+01 -8.34350e+00
       H -2.87546e+00 -1.19568e+01 -9.79568e+00
       O -4.66565e+00 -5.89796e+00 -3.05129e+01
       H -5.55491e+00 -6.15598e+00 -3.07130e+01
       H -4.62600e+00 -5.21806e+00 -3.12208e+01
       O -2.50438e+00 -6.62277e+00 -1.84229e+01
       H -2.61379e+00 -7.38905e+00 -1.77725e+01
       H -3.37425e+00 -6.09956e+00 -1.83910e+01
       O -2.74432e+00  2.56352e+01 -1.39252e+01
       H -3.52137e+00  2.60868e+01 -1.35966e+01
       H -3.14698e+00  2.52153e+01 -1.46454e+01
       O -4.28362e+00 -2.07903e+01 -9.81519e+00
       H -3.33064e+00 -2.05100e+01 -9.59711e+00
       H -4.14087e+00 -2.10078e+01 -1.07722e+01
       O -2.18438e+00  8.18130e+00 -6.16546e+00
       H -1.96849e+00  9.13299e+00 -6.16610e+00
       H -1.84014e+00  7.82872e+00 -6.95110e+00
       O -5.28451e+00 -1.95754e+01 -2.98219e+01
       H -5.96543e+00 -1.89934e+01 -2.94232e+01
       H -5.67765e+00 -1.99285e+01 -3.06213e+01
       O -2.97875e+01 -1.41662e+01 -1.73813e+01
       H -3.05077e+01 -1.37504e+01 -1.69163e+01
       H -3.00630e+01 -1.49850e+01 -1.77860e+01
       O -2.24614e+01 -1.77661e+01 -1.65295e+01
       H -2.24928e+01 -1.77279e+01 -1.55545e+01
       H -2.14874e+01 -1.77716e+01 -1.66458e+01
       O  1.16911e+01  2.65137e+01 -1.09110e+01
       H  1.16898e+01  2.55080e+01 -1.10267e+01
       H  1.07187e+01  2.65957e+01 -1.09500e+01
       O -1.10625e+01  1.55747e+01 -1.42100e+01
       H -1.05808e+01  1.50768e+01 -1.35093e+01
       H -1.03547e+01  1.59145e+01 -1.48074e+01
       O  2.12061e+01 -2.76071e+01  1.17365e+01
       H  2.05234e+01 -2.69224e+01  1.18740e+01
       H  2.18806e+01 -2.69328e+01  1.16472e+01
       O -2.95153e+00 -6.12642e+00 -2.81231e+01
       H -2.50800e+00 -6.89769e+00 -2.85070e+01
       H -3.57792e+00 -5.93980e+00 -2.87730e+01
       O  1.41431e+01  2.98732e+01 -2.77466e+00
       H  1.35845e+01  3.04202e+01 -3.36840e+00
       H  1.50169e+01  3.00715e+01 -2.96578e+00
       O -2.17953e+01 -1.23704e+01 -5.67761e+00
       H -2.19026e+01 -1.13955e+01 -5.71899e+00
       H -2.23958e+01 -1.23927e+01 -4.92699e+00
       O -2.59597e+01  9.92251e-01 -7.86994e+00
       H -2.56783e+01  3.91847e-01 -7.16028e+00
       H -2.50788e+01  1.39468e+00 -8.17099e+00
       O -8.79232e+00 -8.58844e+00 -1.45194e+01
       H -8.49233e+00 -9.14329e+00 -1.52756e+01
       H -7.98443e+00 -8.48021e+00 -1.39109e+01
       O -9.05472e+00  1.02119e+01  2.17322e+01
       H -9.95776e+00  9.81320e+00  2.18590e+01
       H -9.19533e+00  1.04136e+01  2.08378e+01
       O -4.05869e-01  1.95628e+01 -6.17409e+00
       H -8.44914e-01 -2.70376e+01 -6.21268e+00
       H  5.65763e-01  1.97818e+01 -6.22801e+00
       O -2.17874e+01 -1.88010e+01 -7.87072e+00
       H -2.20637e+01 -1.96437e+01 -7.51003e+00
       H -2.19046e+01 -1.89220e+01 -8.83060e+00
       O -1.69779e+01  2.43482e+01 -1.39801e+01
       H -1.60793e+01  2.45084e+01 -1.36183e+01
       H -1.69799e+01  2.52002e+01 -1.45230e+01
       O -1.25487e+01 -1.29892e+01 -9.79201e+00
       H -1.21845e+01 -1.23929e+01 -1.05142e+01
       H -1.20033e+01 -1.38011e+01 -9.85430e+00
       O  8.27887e-01 -3.61265e+00 -1.59972e+01
       H  2.94335e-01 -4.31895e+00 -1.55574e+01
       H  1.66146e+00 -3.72597e+00 -1.55001e+01
       O -1.30769e+01 -1.14858e+01 -3.09485e+01
       H -1.21464e+01 -1.13009e+01 -3.07507e+01
       H -1.29619e+01 -1.16128e+01 -3.19179e+01
       O -5.69651e+00 -2.68239e+01 -1.38101e+01
       H -5.10846e+00 -2.67466e+01 -1.46491e+01
       H -5.18542e+00 -2.63385e+01 -1.31490e+01
       O  1.74292e+01 -1.21435e+01 -6.89339e+00
       H  1.77502e+01 -1.12125e+01 -6.68404e+00
       H  1.79100e+01 -1.24337e+01 -7.67655e+00
       O -1.18388e+01 -1.17233e+01 -2.06110e+01
       H -1.08685e+01 -1.16111e+01 -2.03848e+01
       H -1.21142e+01 -1.07945e+01 -2.05872e+01
       O -3.07217e+01 -9.45902e+00 -2.00857e+01
       H -2.98311e+01 -9.59085e+00 -2.04290e+01
       H -3.12446e+01 -8.94436e+00 -2.08158e+01
       O  3.32443e+00 -1.01628e+01  1.95237e+00
       H  2.46892e+00 -9.95750e+00  2.38144e+00