4
# CELL(abcABC): 1000.00000  1000.00000  1000.00000    90.00000    90.00000    90.00000  Step:         713  Bead:       0 positions{angstrom}  cell{angstrom}
       O -3.14007e+00  1.07022e+00  3.53411e-01
       H -3.84651e+00  5.42283e-01 -6.83693e-02
       H -2.36806e+00  5.37156e-01  4.42912e-01
       H -3.32791e+00  2.00323e+00  7.01290e-01
