4
# CELL(abcABC): 1000.00000  1000.00000  1000.00000    90.00000    90.00000    90.00000  Step:           0  Bead:       0 positions{angstrom}  cell{angstrom}
       O -3.12167e+00  1.04195e+00  3.31702e-01
       H -3.10913e+00  5.55422e-01  1.13939e+00
       H -3.96418e+00  1.04306e+00 -8.59392e-02
       H -2.76129e+00  1.93317e+00  3.66987e-01
4
# CELL(abcABC): 1000.00000  1000.00000  1000.00000    90.00000    90.00000    90.00000  Step:           1  Bead:       0 positions{angstrom}  cell{angstrom}
       O -3.11998e+00  1.04224e+00  3.31146e-01
       H -3.11892e+00  5.47759e-01  1.14428e+00
       H -3.96499e+00  1.04191e+00 -8.54887e-02
       H -2.77752e+00  1.93738e+00  3.70470e-01
4
# CELL(abcABC): 1000.00000  1000.00000  1000.00000    90.00000    90.00000    90.00000  Step:           2  Bead:       0 positions{angstrom}  cell{angstrom}
       O -3.11839e+00  1.04245e+00  3.30614e-01
       H -3.12897e+00  5.40096e-01  1.14999e+00
       H -3.96594e+00  1.03980e+00 -8.63999e-02
       H -2.79181e+00  1.94376e+00  3.74123e-01
4
# CELL(abcABC): 1000.00000  1000.00000  1000.00000    90.00000    90.00000    90.00000  Step:           3  Bead:       0 positions{angstrom}  cell{angstrom}
       O -3.11679e+00  1.04261e+00  3.30092e-01
       H -3.13847e+00  5.31765e-01  1.15680e+00
       H -3.96860e+00  1.03788e+00 -8.79152e-02
       H -2.80506e+00  1.95154e+00  3.77107e-01
4
# CELL(abcABC): 1000.00000  1000.00000  1000.00000    90.00000    90.00000    90.00000  Step:           4  Bead:       0 positions{angstrom}  cell{angstrom}
       O -3.11528e+00  1.04270e+00  3.29792e-01
       H -3.14803e+00  5.23469e-01  1.16078e+00
       H -3.97155e+00  1.03582e+00 -9.08591e-02
       H -2.81651e+00  1.96054e+00  3.80832e-01
4
# CELL(abcABC): 1000.00000  1000.00000  1000.00000    90.00000    90.00000    90.00000  Step:           5  Bead:       0 positions{angstrom}  cell{angstrom}
       O -3.11377e+00  1.04255e+00  3.29706e-01
       H -3.15806e+00  5.16927e-01  1.16201e+00
       H -3.97545e+00  1.03420e+00 -9.34739e-02
       H -2.82643e+00  1.97103e+00  3.83592e-01
4
# CELL(abcABC): 1000.00000  1000.00000  1000.00000    90.00000    90.00000    90.00000  Step:           6  Bead:       0 positions{angstrom}  cell{angstrom}
       O -3.11230e+00  1.04238e+00  3.29833e-01
       H -3.16757e+00  5.12679e-01  1.15945e+00
       H -3.97961e+00  1.03034e+00 -9.74362e-02
       H -2.83609e+00  1.98182e+00  3.88095e-01
4
# CELL(abcABC): 1000.00000  1000.00000  1000.00000    90.00000    90.00000    90.00000  Step:           7  Bead:       0 positions{angstrom}  cell{angstrom}
       O -3.11107e+00  1.04205e+00  3.29920e-01
       H -3.17502e+00  5.10502e-01  1.15537e+00
       H -3.98278e+00  1.02547e+00 -1.00608e-01
       H -2.84507e+00  1.99404e+00  3.93955e-01
4
# CELL(abcABC): 1000.00000  1000.00000  1000.00000    90.00000    90.00000    90.00000  Step:           8  Bead:       0 positions{angstrom}  cell{angstrom}
       O -3.11014e+00  1.04174e+00  3.30177e-01
       H -3.18071e+00  5.10282e-01  1.14813e+00
       H -3.98318e+00  1.01899e+00 -1.04155e-01
       H -2.85373e+00  2.00579e+00  4.00676e-01
4
# CELL(abcABC): 1000.00000  1000.00000  1000.00000    90.00000    90.00000    90.00000  Step:           9  Bead:       0 positions{angstrom}  cell{angstrom}
       O -3.10949e+00  1.04157e+00  3.30369e-01
       H -3.18544e+00  5.10787e-01  1.14014e+00
       H -3.98042e+00  1.01192e+00 -1.06709e-01
       H -2.86213e+00  2.01501e+00  4.08169e-01
4
# CELL(abcABC): 1000.00000  1000.00000  1000.00000    90.00000    90.00000    90.00000  Step:          10  Bead:       0 positions{angstrom}  cell{angstrom}
       O -3.10906e+00  1.04146e+00  3.30704e-01
       H -3.18897e+00  5.12380e-01  1.13026e+00
       H -3.97536e+00  1.00477e+00 -1.09665e-01
       H -2.87038e+00  2.02236e+00  4.15695e-01
4
# CELL(abcABC): 1000.00000  1000.00000  1000.00000    90.00000    90.00000    90.00000  Step:          11  Bead:       0 positions{angstrom}  cell{angstrom}
       O -3.10884e+00  1.04154e+00  3.31152e-01
       H -3.19108e+00  5.15196e-01  1.11893e+00
       H -3.96970e+00  9.96565e-01 -1.12891e-01
       H -2.87742e+00  2.02645e+00  4.23130e-01
4
# CELL(abcABC): 1000.00000  1000.00000  1000.00000    90.00000    90.00000    90.00000  Step:          12  Bead:       0 positions{angstrom}  cell{angstrom}
       O -3.10895e+00  1.04192e+00  3.31586e-01
       H -3.19066e+00  5.17581e-01  1.10840e+00
       H -3.96257e+00  9.86386e-01 -1.17198e-01
       H -2.88328e+00  2.02811e+00  4.31072e-01
4
# CELL(abcABC): 1000.00000  1000.00000  1000.00000    90.00000    90.00000    90.00000  Step:          13  Bead:       0 positions{angstrom}  cell{angstrom}
       O -3.10930e+00  1.04262e+00  3.31855e-01
       H -3.18895e+00  5.19543e-01  1.10050e+00
       H -3.95300e+00  9.75361e-01 -1.21829e-01
       H -2.88906e+00  2.02610e+00  4.39336e-01
4
# CELL(abcABC): 1000.00000  1000.00000  1000.00000    90.00000    90.00000    90.00000  Step:          14  Bead:       0 positions{angstrom}  cell{angstrom}
       O -3.10984e+00  1.04361e+00  3.31903e-01
       H -3.18469e+00  5.19620e-01  1.09641e+00
       H -3.94243e+00  9.64299e-01 -1.27177e-01
       H -2.89519e+00  2.02132e+00  4.48009e-01
4
# CELL(abcABC): 1000.00000  1000.00000  1000.00000    90.00000    90.00000    90.00000  Step:          15  Bead:       0 positions{angstrom}  cell{angstrom}
       O -3.11041e+00  1.04479e+00  3.31546e-01
       H -3.18132e+00  5.17333e-01  1.09835e+00
       H -3.93274e+00  9.53183e-01 -1.33392e-01
       H -2.89920e+00  2.01601e+00  4.57966e-01
4
# CELL(abcABC): 1000.00000  1000.00000  1000.00000    90.00000    90.00000    90.00000  Step:          16  Bead:       0 positions{angstrom}  cell{angstrom}
       O -3.11107e+00  1.04613e+00  3.31047e-01
       H -3.17588e+00  5.13148e-01  1.10332e+00
       H -3.92413e+00  9.42682e-01 -1.40899e-01
       H -2.90277e+00  2.00945e+00  4.68412e-01
4
# CELL(abcABC): 1000.00000  1000.00000  1000.00000    90.00000    90.00000    90.00000  Step:          17  Bead:       0 positions{angstrom}  cell{angstrom}
       O -3.11165e+00  1.04761e+00  3.30476e-01
       H -3.16879e+00  5.08500e-01  1.11094e+00
       H -3.91793e+00  9.32511e-01 -1.50895e-01
       H -2.90690e+00  2.00082e+00  4.79866e-01
4
# CELL(abcABC): 1000.00000  1000.00000  1000.00000    90.00000    90.00000    90.00000  Step:          18  Bead:       0 positions{angstrom}  cell{angstrom}
       O -3.11219e+00  1.04903e+00  3.29910e-01
       H -3.16187e+00  5.04502e-01  1.11986e+00
       H -3.91203e+00  9.22119e-01 -1.62408e-01
       H -2.91121e+00  1.99260e+00  4.91431e-01
4
# CELL(abcABC): 1000.00000  1000.00000  1000.00000    90.00000    90.00000    90.00000  Step:          19  Bead:       0 positions{angstrom}  cell{angstrom}
       O -3.11281e+00  1.05044e+00  3.29409e-01
       H -3.15380e+00  5.00930e-01  1.12907e+00
       H -3.90812e+00  9.11033e-01 -1.75827e-01
       H -2.91329e+00  1.98498e+00  5.03595e-01
4
# CELL(abcABC): 1000.00000  1000.00000  1000.00000    90.00000    90.00000    90.00000  Step:          20  Bead:       0 positions{angstrom}  cell{angstrom}
       O -3.11345e+00  1.05173e+00  3.29107e-01
       H -3.14503e+00  4.98987e-01  1.13545e+00
       H -3.90586e+00  9.00079e-01 -1.89810e-01
       H -2.91419e+00  1.97738e+00  5.15990e-01
4
# CELL(abcABC): 1000.00000  1000.00000  1000.00000    90.00000    90.00000    90.00000  Step:          21  Bead:       0 positions{angstrom}  cell{angstrom}
       O -3.11423e+00  1.05279e+00  3.29048e-01
       H -3.13622e+00  4.98053e-01  1.13834e+00
       H -3.90193e+00  8.89933e-01 -2.03058e-01
       H -2.91459e+00  1.97165e+00  5.27285e-01
4
# CELL(abcABC): 1000.00000  1000.00000  1000.00000    90.00000    90.00000    90.00000  Step:          22  Bead:       0 positions{angstrom}  cell{angstrom}
       O -3.11516e+00  1.05349e+00  3.29271e-01
       H -3.12826e+00  4.97839e-01  1.13937e+00
       H -3.89517e+00  8.80482e-01 -2.17676e-01
       H -2.91445e+00  1.97013e+00  5.37327e-01
4
# CELL(abcABC): 1000.00000  1000.00000  1000.00000    90.00000    90.00000    90.00000  Step:          23  Bead:       0 positions{angstrom}  cell{angstrom}
       O -3.11624e+00  1.05390e+00  3.29876e-01
       H -3.12007e+00  4.99711e-01  1.13683e+00
       H -3.88633e+00  8.72100e-01 -2.31322e-01
       H -2.91435e+00  1.97015e+00  5.43916e-01
4
# CELL(abcABC): 1000.00000  1000.00000  1000.00000    90.00000    90.00000    90.00000  Step:          24  Bead:       0 positions{angstrom}  cell{angstrom}
       O -3.11745e+00  1.05395e+00  3.30666e-01
       H -3.11142e+00  5.01849e-01  1.13141e+00
       H -3.87571e+00  8.65414e-01 -2.43916e-01
       H -2.91443e+00  1.97399e+00  5.49389e-01
4
# CELL(abcABC): 1000.00000  1000.00000  1000.00000    90.00000    90.00000    90.00000  Step:          25  Bead:       0 positions{angstrom}  cell{angstrom}
       O -3.11870e+00  1.05387e+00  3.31512e-01
       H -3.10309e+00  5.03773e-01  1.12454e+00
       H -3.86403e+00  8.58663e-01 -2.55428e-01
       H -2.91460e+00  1.98000e+00  5.54338e-01
4
# CELL(abcABC): 1000.00000  1000.00000  1000.00000    90.00000    90.00000    90.00000  Step:          26  Bead:       0 positions{angstrom}  cell{angstrom}
       O -3.11998e+00  1.05376e+00  3.32444e-01
       H -3.09517e+00  5.05244e-01  1.11541e+00
       H -3.85082e+00  8.52111e-01 -2.66234e-01
       H -2.91540e+00  1.98687e+00  5.59491e-01
4
# CELL(abcABC): 1000.00000  1000.00000  1000.00000    90.00000    90.00000    90.00000  Step:          27  Bead:       0 positions{angstrom}  cell{angstrom}
       O -3.12137e+00  1.05361e+00  3.33470e-01
       H -3.08789e+00  5.07150e-01  1.10495e+00
       H -3.83663e+00  8.45072e-01 -2.76581e-01
       H -2.91480e+00  1.99441e+00  5.64008e-01
4
# CELL(abcABC): 1000.00000  1000.00000  1000.00000    90.00000    90.00000    90.00000  Step:          28  Bead:       0 positions{angstrom}  cell{angstrom}
       O -3.12269e+00  1.05354e+00  3.34453e-01
       H -3.08215e+00  5.06144e-01  1.09479e+00
       H -3.82123e+00  8.38390e-01 -2.86064e-01
       H -2.91509e+00  2.00312e+00  5.68039e-01
4
# CELL(abcABC): 1000.00000  1000.00000  1000.00000    90.00000    90.00000    90.00000  Step:          29  Bead:       0 positions{angstrom}  cell{angstrom}
       O -3.12397e+00  1.05362e+00  3.35440e-01
       H -3.07616e+00  5.03341e-01  1.08459e+00
       H -3.80660e+00  8.31770e-01 -2.95248e-01
       H -2.91530e+00  2.01134e+00  5.71762e-01
4
# CELL(abcABC): 1000.00000  1000.00000  1000.00000    90.00000    90.00000    90.00000  Step:          30  Bead:       0 positions{angstrom}  cell{angstrom}
       O -3.12518e+00  1.05384e+00  3.36350e-01
       H -3.07016e+00  4.98781e-01  1.07733e+00
       H -3.79242e+00  8.25139e-01 -3.03989e-01
       H -2.91629e+00  2.01897e+00  5.73306e-01
4
# CELL(abcABC): 1000.00000  1000.00000  1000.00000    90.00000    90.00000    90.00000  Step:          31  Bead:       0 positions{angstrom}  cell{angstrom}
       O -3.12643e+00  1.05425e+00  3.37275e-01
       H -3.06288e+00  4.91329e-01  1.07284e+00
       H -3.77816e+00  8.19607e-01 -3.13588e-01
       H -2.91804e+00  2.02541e+00  5.72717e-01
4
# CELL(abcABC): 1000.00000  1000.00000  1000.00000    90.00000    90.00000    90.00000  Step:          32  Bead:       0 positions{angstrom}  cell{angstrom}
       O -3.12754e+00  1.05508e+00  3.38000e-01
       H -3.05680e+00  4.79055e-01  1.07137e+00
       H -3.76414e+00  8.15272e-01 -3.22400e-01
       H -2.92052e+00  2.02891e+00  5.71492e-01
4
# CELL(abcABC): 1000.00000  1000.00000  1000.00000    90.00000    90.00000    90.00000  Step:          33  Bead:       0 positions{angstrom}  cell{angstrom}
       O -3.12850e+00  1.05633e+00  3.38663e-01
       H -3.05160e+00  4.63795e-01  1.07266e+00
       H -3.75078e+00  8.09835e-01 -3.31372e-01
       H -2.92376e+00  2.02980e+00  5.68659e-01
4
# CELL(abcABC): 1000.00000  1000.00000  1000.00000    90.00000    90.00000    90.00000  Step:          34  Bead:       0 positions{angstrom}  cell{angstrom}
       O -3.12919e+00  1.05784e+00  3.39554e-01
       H -3.04639e+00  4.47116e-01  1.07401e+00
       H -3.74037e+00  8.03784e-01 -3.40779e-01
       H -2.92842e+00  2.02852e+00  5.62574e-01
4
# CELL(abcABC): 1000.00000  1000.00000  1000.00000    90.00000    90.00000    90.00000  Step:          35  Bead:       0 positions{angstrom}  cell{angstrom}
       O -3.12979e+00  1.05945e+00  3.40641e-01
       H -3.04000e+00  4.30280e-01  1.07352e+00
       H -3.73212e+00  7.98668e-01 -3.50098e-01
       H -2.93360e+00  2.02491e+00  5.55124e-01
4
# CELL(abcABC): 1000.00000  1000.00000  1000.00000    90.00000    90.00000    90.00000  Step:          36  Bead:       0 positions{angstrom}  cell{angstrom}
       O -3.13032e+00  1.06100e+00  3.41971e-01
       H -3.03394e+00  4.14432e-01  1.07038e+00
       H -3.72436e+00  7.95056e-01 -3.60503e-01
       H -2.93907e+00  2.01985e+00  5.47554e-01
4
# CELL(abcABC): 1000.00000  1000.00000  1000.00000    90.00000    90.00000    90.00000  Step:          37  Bead:       0 positions{angstrom}  cell{angstrom}
       O -3.13084e+00  1.06251e+00  3.43410e-01
       H -3.02786e+00  4.01204e-01  1.06617e+00
       H -3.71625e+00  7.91275e-01 -3.71211e-01
       H -2.94490e+00  2.01287e+00  5.39634e-01
4
# CELL(abcABC): 1000.00000  1000.00000  1000.00000    90.00000    90.00000    90.00000  Step:          38  Bead:       0 positions{angstrom}  cell{angstrom}
       O -3.13120e+00  1.06382e+00  3.45203e-01
       H -3.02340e+00  3.90195e-01  1.05755e+00
       H -3.70772e+00  7.87016e-01 -3.81547e-01
       H -2.95223e+00  2.00734e+00  5.30140e-01
4
# CELL(abcABC): 1000.00000  1000.00000  1000.00000    90.00000    90.00000    90.00000  Step:          39  Bead:       0 positions{angstrom}  cell{angstrom}
       O -3.13176e+00  1.06497e+00  3.47019e-01
       H -3.01874e+00  3.81317e-01  1.04629e+00
       H -3.69790e+00  7.82394e-01 -3.89844e-01
       H -2.95780e+00  2.00256e+00  5.20865e-01
4
# CELL(abcABC): 1000.00000  1000.00000  1000.00000    90.00000    90.00000    90.00000  Step:          40  Bead:       0 positions{angstrom}  cell{angstrom}
       O -3.13245e+00  1.06573e+00  3.48710e-01
       H -3.01448e+00  3.75357e-01  1.03320e+00
       H -3.68661e+00  7.78842e-01 -3.95055e-01
       H -2.96246e+00  2.00000e+00  5.12315e-01
4
# CELL(abcABC): 1000.00000  1000.00000  1000.00000    90.00000    90.00000    90.00000  Step:          41  Bead:       0 positions{angstrom}  cell{angstrom}
       O -3.13323e+00  1.06609e+00  3.50347e-01
       H -3.01079e+00  3.72676e-01  1.01752e+00
       H -3.67347e+00  7.76606e-01 -3.98484e-01
       H -2.96678e+00  1.99914e+00  5.05441e-01
4
# CELL(abcABC): 1000.00000  1000.00000  1000.00000    90.00000    90.00000    90.00000  Step:          42  Bead:       0 positions{angstrom}  cell{angstrom}
       O -3.13425e+00  1.06625e+00  3.51976e-01
       H -3.00569e+00  3.70052e-01  1.00029e+00
       H -3.65901e+00  7.75262e-01 -4.00338e-01
       H -2.97027e+00  2.00066e+00  4.98668e-01
4
# CELL(abcABC): 1000.00000  1000.00000  1000.00000    90.00000    90.00000    90.00000  Step:          43  Bead:       0 positions{angstrom}  cell{angstrom}
       O -3.13536e+00  1.06606e+00  3.53517e-01
       H -3.00061e+00  3.69353e-01  9.82543e-01
       H -3.64371e+00  7.75918e-01 -4.01256e-01
       H -2.97302e+00  2.00364e+00  4.92875e-01
4
# CELL(abcABC): 1000.00000  1000.00000  1000.00000    90.00000    90.00000    90.00000  Step:          44  Bead:       0 positions{angstrom}  cell{angstrom}
       O -3.13654e+00  1.06574e+00  3.54924e-01
       H -2.99473e+00  3.68013e-01  9.65203e-01
       H -3.62814e+00  7.76552e-01 -4.02672e-01
       H -2.97566e+00  2.00946e+00  4.89300e-01
4
# CELL(abcABC): 1000.00000  1000.00000  1000.00000    90.00000    90.00000    90.00000  Step:          45  Bead:       0 positions{angstrom}  cell{angstrom}
       O -3.13772e+00  1.06539e+00  3.56234e-01
       H -2.98847e+00  3.65761e-01  9.49363e-01
       H -3.61218e+00  7.76662e-01 -4.05688e-01
       H -2.97925e+00  2.01709e+00  4.87358e-01
4
# CELL(abcABC): 1000.00000  1000.00000  1000.00000    90.00000    90.00000    90.00000  Step:          46  Bead:       0 positions{angstrom}  cell{angstrom}
       O -3.13901e+00  1.06514e+00  3.57406e-01
       H -2.98102e+00  3.62144e-01  9.36190e-01
       H -3.59701e+00  7.75781e-01 -4.10639e-01
       H -2.98139e+00  2.02557e+00  4.86884e-01
4
# CELL(abcABC): 1000.00000  1000.00000  1000.00000    90.00000    90.00000    90.00000  Step:          47  Bead:       0 positions{angstrom}  cell{angstrom}
       O -3.14034e+00  1.06494e+00  3.58524e-01
       H -2.97196e+00  3.55688e-01  9.26941e-01
       H -3.58260e+00  7.74849e-01 -4.18338e-01
       H -2.98364e+00  2.03613e+00  4.86074e-01
4
# CELL(abcABC): 1000.00000  1000.00000  1000.00000    90.00000    90.00000    90.00000  Step:          48  Bead:       0 positions{angstrom}  cell{angstrom}
       O -3.14173e+00  1.06504e+00  3.59463e-01
       H -2.96073e+00  3.45651e-01  9.21653e-01
       H -3.56909e+00  7.74220e-01 -4.28718e-01
       H -2.98636e+00  2.04521e+00  4.86836e-01
4
# CELL(abcABC): 1000.00000  1000.00000  1000.00000    90.00000    90.00000    90.00000  Step:          49  Bead:       0 positions{angstrom}  cell{angstrom}
       O -3.14323e+00  1.06534e+00  3.60143e-01
       H -2.94785e+00  3.33359e-01  9.19943e-01
       H -3.55510e+00  7.73118e-01 -4.40619e-01
       H -2.98948e+00  2.05385e+00  4.89658e-01
4
# CELL(abcABC): 1000.00000  1000.00000  1000.00000    90.00000    90.00000    90.00000  Step:          50  Bead:       0 positions{angstrom}  cell{angstrom}
       O -3.14460e+00  1.06585e+00  3.60815e-01
       H -2.93407e+00  3.20692e-01  9.19872e-01
       H -3.54330e+00  7.71259e-01 -4.53591e-01
       H -2.99319e+00  2.06027e+00  4.92028e-01
4
# CELL(abcABC): 1000.00000  1000.00000  1000.00000    90.00000    90.00000    90.00000  Step:          51  Bead:       0 positions{angstrom}  cell{angstrom}
       O -3.14603e+00  1.06642e+00  3.61419e-01
       H -2.91987e+00  3.08530e-01  9.20169e-01
       H -3.53197e+00  7.69953e-01 -4.67087e-01
       H -2.99605e+00  2.06479e+00  4.95648e-01
4
# CELL(abcABC): 1000.00000  1000.00000  1000.00000    90.00000    90.00000    90.00000  Step:          52  Bead:       0 positions{angstrom}  cell{angstrom}
       O -3.14747e+00  1.06705e+00  3.62065e-01
       H -2.90579e+00  2.98382e-01  9.20264e-01
       H -3.52075e+00  7.68639e-01 -4.81261e-01
       H -2.99859e+00  2.06614e+00  4.99465e-01
4
# CELL(abcABC): 1000.00000  1000.00000  1000.00000    90.00000    90.00000    90.00000  Step:          53  Bead:       0 positions{angstrom}  cell{angstrom}
       O -3.14894e+00  1.06756e+00  3.62605e-01
       H -2.89131e+00  2.92071e-01  9.18436e-01
       H -3.50936e+00  7.69653e-01 -4.93413e-01
       H -3.00109e+00  2.06343e+00  5.04880e-01
4
# CELL(abcABC): 1000.00000  1000.00000  1000.00000    90.00000    90.00000    90.00000  Step:          54  Bead:       0 positions{angstrom}  cell{angstrom}
       O -3.15040e+00  1.06798e+00  3.62792e-01
       H -2.87742e+00  2.88862e-01  9.16210e-01
       H -3.49772e+00  7.72533e-01 -5.02712e-01
       H -3.00341e+00  2.05705e+00  5.13439e-01
4
# CELL(abcABC): 1000.00000  1000.00000  1000.00000    90.00000    90.00000    90.00000  Step:          55  Bead:       0 positions{angstrom}  cell{angstrom}
       O -3.15191e+00  1.06820e+00  3.62845e-01
       H -2.86491e+00  2.90205e-01  9.12990e-01
       H -3.48527e+00  7.76785e-01 -5.08896e-01
       H -3.00440e+00  2.04799e+00  5.22006e-01
4
# CELL(abcABC): 1000.00000  1000.00000  1000.00000    90.00000    90.00000    90.00000  Step:          56  Bead:       0 positions{angstrom}  cell{angstrom}
       O -3.15349e+00  1.06813e+00  3.62796e-01
       H -2.85115e+00  2.96263e-01  9.08552e-01
       H -3.47237e+00  7.82005e-01 -5.13732e-01
       H -3.00600e+00  2.03790e+00  5.32051e-01
4
# CELL(abcABC): 1000.00000  1000.00000  1000.00000    90.00000    90.00000    90.00000  Step:          57  Bead:       0 positions{angstrom}  cell{angstrom}
       O -3.15506e+00  1.06774e+00  3.62602e-01
       H -2.83671e+00  3.07050e-01  9.02951e-01
       H -3.46004e+00  7.87863e-01 -5.15305e-01
       H -3.00783e+00  2.02741e+00  5.42307e-01
4
# CELL(abcABC): 1000.00000  1000.00000  1000.00000    90.00000    90.00000    90.00000  Step:          58  Bead:       0 positions{angstrom}  cell{angstrom}
       O -3.15671e+00  1.06713e+00  3.62329e-01
       H -2.82189e+00  3.20573e-01  8.95845e-01
       H -3.44702e+00  7.94550e-01 -5.14436e-01
       H -3.00943e+00  2.01678e+00  5.52880e-01
4
# CELL(abcABC): 1000.00000  1000.00000  1000.00000    90.00000    90.00000    90.00000  Step:          59  Bead:       0 positions{angstrom}  cell{angstrom}
       O -3.15844e+00  1.06626e+00  3.61887e-01
       H -2.80657e+00  3.36767e-01  8.87980e-01
       H -3.43360e+00  8.02222e-01 -5.10950e-01
       H -3.01075e+00  2.00674e+00  5.64276e-01
4
# CELL(abcABC): 1000.00000  1000.00000  1000.00000    90.00000    90.00000    90.00000  Step:          60  Bead:       0 positions{angstrom}  cell{angstrom}
       O -3.16024e+00  1.06529e+00  3.61485e-01
       H -2.79229e+00  3.53989e-01  8.79953e-01
       H -3.41960e+00  8.09295e-01 -5.09214e-01
       H -3.01047e+00  1.99795e+00  5.76949e-01
4
# CELL(abcABC): 1000.00000  1000.00000  1000.00000    90.00000    90.00000    90.00000  Step:          61  Bead:       0 positions{angstrom}  cell{angstrom}
       O -3.16219e+00  1.06428e+00  3.61140e-01
       H -2.77662e+00  3.70768e-01  8.72127e-01
       H -3.40478e+00  8.15722e-01 -5.10057e-01
       H -3.00999e+00  1.99071e+00  5.91094e-01
4
# CELL(abcABC): 1000.00000  1000.00000  1000.00000    90.00000    90.00000    90.00000  Step:          62  Bead:       0 positions{angstrom}  cell{angstrom}
       O -3.16414e+00  1.06338e+00  3.60981e-01
       H -2.76074e+00  3.85577e-01  8.64928e-01
       H -3.39176e+00  8.20915e-01 -5.13550e-01
       H -3.00793e+00  1.98507e+00  6.04310e-01
4
# CELL(abcABC): 1000.00000  1000.00000  1000.00000    90.00000    90.00000    90.00000  Step:          63  Bead:       0 positions{angstrom}  cell{angstrom}
       O -3.16613e+00  1.06245e+00  3.60726e-01
       H -2.74310e+00  3.99252e-01  8.59740e-01
       H -3.37973e+00  8.24443e-01 -5.19717e-01
       H -3.00608e+00  1.98261e+00  6.19711e-01
4
# CELL(abcABC): 1000.00000  1000.00000  1000.00000    90.00000    90.00000    90.00000  Step:          64  Bead:       0 positions{angstrom}  cell{angstrom}
       O -3.16824e+00  1.06165e+00  3.60484e-01
       H -2.72255e+00  4.10535e-01  8.57277e-01
       H -3.36799e+00  8.26823e-01 -5.28229e-01
       H -3.00483e+00  1.98167e+00  6.34530e-01
4
# CELL(abcABC): 1000.00000  1000.00000  1000.00000    90.00000    90.00000    90.00000  Step:          65  Bead:       0 positions{angstrom}  cell{angstrom}
       O -3.17044e+00  1.06093e+00  3.60317e-01
       H -2.70122e+00  4.19808e-01  8.55209e-01
       H -3.35603e+00  8.29677e-01 -5.38732e-01
       H -3.00320e+00  1.98095e+00  6.49737e-01
4
# CELL(abcABC): 1000.00000  1000.00000  1000.00000    90.00000    90.00000    90.00000  Step:          66  Bead:       0 positions{angstrom}  cell{angstrom}
       O -3.17272e+00  1.06023e+00  3.60109e-01
       H -2.67879e+00  4.29395e-01  8.54833e-01
       H -3.34414e+00  8.30561e-01 -5.49935e-01
       H -3.00141e+00  1.98148e+00  6.64629e-01
4
# CELL(abcABC): 1000.00000  1000.00000  1000.00000    90.00000    90.00000    90.00000  Step:          67  Bead:       0 positions{angstrom}  cell{angstrom}
       O -3.17494e+00  1.05972e+00  3.59943e-01
       H -2.65543e+00  4.36448e-01  8.54048e-01
       H -3.33171e+00  8.31371e-01 -5.60663e-01
       H -3.00186e+00  1.98180e+00  6.78768e-01
4
# CELL(abcABC): 1000.00000  1000.00000  1000.00000    90.00000    90.00000    90.00000  Step:          68  Bead:       0 positions{angstrom}  cell{angstrom}
       O -3.17716e+00  1.05922e+00  3.59980e-01
       H -2.63151e+00  4.42267e-01  8.52618e-01
       H -3.31871e+00  8.32446e-01 -5.72131e-01
       H -3.00351e+00  1.98285e+00  6.91083e-01
4
# CELL(abcABC): 1000.00000  1000.00000  1000.00000    90.00000    90.00000    90.00000  Step:          69  Bead:       0 positions{angstrom}  cell{angstrom}
       O -3.17923e+00  1.05885e+00  3.59898e-01
       H -2.60883e+00  4.46277e-01  8.51721e-01
       H -3.30601e+00  8.34174e-01 -5.80899e-01
       H -3.00612e+00  1.98299e+00  7.02048e-01
4
# CELL(abcABC): 1000.00000  1000.00000  1000.00000    90.00000    90.00000    90.00000  Step:          70  Bead:       0 positions{angstrom}  cell{angstrom}
       O -3.18129e+00  1.05831e+00  3.59901e-01
       H -2.58753e+00  4.51277e-01  8.48071e-01
       H -3.29268e+00  8.37533e-01 -5.87529e-01
       H -3.00808e+00  1.98322e+00  7.12279e-01
4
# CELL(abcABC): 1000.00000  1000.00000  1000.00000    90.00000    90.00000    90.00000  Step:          71  Bead:       0 positions{angstrom}  cell{angstrom}
       O -3.18308e+00  1.05777e+00  3.60074e-01
       H -2.56937e+00  4.55997e-01  8.40717e-01
       H -3.27936e+00  8.41473e-01 -5.91826e-01
       H -3.01101e+00  1.98299e+00  7.21192e-01
4
# CELL(abcABC): 1000.00000  1000.00000  1000.00000    90.00000    90.00000    90.00000  Step:          72  Bead:       0 positions{angstrom}  cell{angstrom}
       O -3.18467e+00  1.05706e+00  3.60309e-01
       H -2.55376e+00  4.61996e-01  8.31125e-01
       H -3.26552e+00  8.46851e-01 -5.92447e-01
       H -3.01528e+00  1.98297e+00  7.27670e-01
4
# CELL(abcABC): 1000.00000  1000.00000  1000.00000    90.00000    90.00000    90.00000  Step:          73  Bead:       0 positions{angstrom}  cell{angstrom}
       O -3.18594e+00  1.05629e+00  3.60744e-01
       H -2.54140e+00  4.68854e-01  8.18902e-01
       H -3.25152e+00  8.53940e-01 -5.90345e-01
       H -3.02148e+00  1.98122e+00  7.30890e-01
4
# CELL(abcABC): 1000.00000  1000.00000  1000.00000    90.00000    90.00000    90.00000  Step:          74  Bead:       0 positions{angstrom}  cell{angstrom}
       O -3.18696e+00  1.05539e+00  3.61481e-01
       H -2.53178e+00  4.76605e-01  8.03173e-01
       H -3.23759e+00  8.62373e-01 -5.87232e-01
       H -3.02890e+00  1.97940e+00  7.31802e-01
4
# CELL(abcABC): 1000.00000  1000.00000  1000.00000    90.00000    90.00000    90.00000  Step:          75  Bead:       0 positions{angstrom}  cell{angstrom}
       O -3.18754e+00  1.05446e+00  3.62365e-01
       H -2.52533e+00  4.83769e-01  7.85210e-01
       H -3.22459e+00  8.71461e-01 -5.81813e-01
       H -3.03916e+00  1.97782e+00  7.30319e-01
4
# CELL(abcABC): 1000.00000  1000.00000  1000.00000    90.00000    90.00000    90.00000  Step:          76  Bead:       0 positions{angstrom}  cell{angstrom}
       O -3.18794e+00  1.05338e+00  3.63268e-01
       H -2.52008e+00  4.91034e-01  7.67384e-01
       H -3.21234e+00  8.81729e-01 -5.75638e-01
       H -3.05019e+00  1.97739e+00  7.27640e-01
4
# CELL(abcABC): 1000.00000  1000.00000  1000.00000    90.00000    90.00000    90.00000  Step:          77  Bead:       0 positions{angstrom}  cell{angstrom}
       O -3.18805e+00  1.05229e+00  3.64276e-01
       H -2.51617e+00  4.98472e-01  7.49409e-01
       H -3.20141e+00  8.93257e-01 -5.69200e-01
       H -3.06336e+00  1.97579e+00  7.23170e-01
4
# CELL(abcABC): 1000.00000  1000.00000  1000.00000    90.00000    90.00000    90.00000  Step:          78  Bead:       0 positions{angstrom}  cell{angstrom}
       O -3.18793e+00  1.05126e+00  3.65587e-01
       H -2.51375e+00  5.03831e-01  7.31178e-01
       H -3.19071e+00  9.06190e-01 -5.64446e-01
       H -3.07838e+00  1.97383e+00  7.15833e-01
4
# CELL(abcABC): 1000.00000  1000.00000  1000.00000    90.00000    90.00000    90.00000  Step:          79  Bead:       0 positions{angstrom}  cell{angstrom}
       O -3.18776e+00  1.05042e+00  3.66982e-01
       H -2.51130e+00  5.07650e-01  7.15737e-01
       H -3.17987e+00  9.18873e-01 -5.62181e-01
       H -3.09430e+00  1.97063e+00  7.06869e-01
4
# CELL(abcABC): 1000.00000  1000.00000  1000.00000    90.00000    90.00000    90.00000  Step:          80  Bead:       0 positions{angstrom}  cell{angstrom}
       O -3.18765e+00  1.04971e+00  3.68340e-01
       H -2.50694e+00  5.09219e-01  7.02524e-01
       H -3.16977e+00  9.31771e-01 -5.61595e-01
       H -3.11059e+00  1.96754e+00  6.97949e-01
4
# CELL(abcABC): 1000.00000  1000.00000  1000.00000    90.00000    90.00000    90.00000  Step:          81  Bead:       0 positions{angstrom}  cell{angstrom}
       O -3.18759e+00  1.04894e+00  3.69781e-01
       H -2.49851e+00  5.09011e-01  6.91346e-01
       H -3.16145e+00  9.46953e-01 -5.63692e-01
       H -3.12830e+00  1.96473e+00  6.88345e-01
4
# CELL(abcABC): 1000.00000  1000.00000  1000.00000    90.00000    90.00000    90.00000  Step:          82  Bead:       0 positions{angstrom}  cell{angstrom}
       O -3.18752e+00  1.04835e+00  3.71093e-01
       H -2.48751e+00  5.05922e-01  6.83674e-01
       H -3.15402e+00  9.61316e-01 -5.68447e-01
       H -3.14784e+00  1.96286e+00  6.79949e-01
4
# CELL(abcABC): 1000.00000  1000.00000  1000.00000    90.00000    90.00000    90.00000  Step:          83  Bead:       0 positions{angstrom}  cell{angstrom}
       O -3.18744e+00  1.04765e+00  3.72311e-01
       H -2.47526e+00  5.01745e-01  6.78955e-01
       H -3.14791e+00  9.76411e-01 -5.75086e-01
       H -3.16750e+00  1.96297e+00  6.71966e-01
4
# CELL(abcABC): 1000.00000  1000.00000  1000.00000    90.00000    90.00000    90.00000  Step:          84  Bead:       0 positions{angstrom}  cell{angstrom}
       O -3.18723e+00  1.04686e+00  3.73407e-01
       H -2.46168e+00  4.96273e-01  6.75368e-01
       H -3.14415e+00  9.91965e-01 -5.82778e-01
       H -3.18810e+00  1.96554e+00  6.65854e-01
4
# CELL(abcABC): 1000.00000  1000.00000  1000.00000    90.00000    90.00000    90.00000  Step:          85  Bead:       0 positions{angstrom}  cell{angstrom}