4
# CELL(abcABC): 1000.00000  1000.00000  1000.00000    90.00000    90.00000    90.00000  Step:           0  Bead:       0 positions{angstrom}  cell{angstrom}
       O -3.14389e+00  1.06699e+00  3.99160e-01
       H -4.07620e+00  1.20062e+00  2.96983e-01
       H -2.84586e+00  2.09643e-01  3.12151e-02
       H -2.55983e+00  1.72387e+00  2.14685e-02
4
# CELL(abcABC): 1000.00000  1000.00000  1000.00000    90.00000    90.00000    90.00000  Step:           1  Bead:       0 positions{angstrom}  cell{angstrom}
       O -3.14209e+00  1.06714e+00  3.98676e-01
       H -4.08796e+00  1.19409e+00  3.00673e-01
       H -2.84606e+00  2.08698e-01  3.24076e-02
       H -2.57644e+00  1.72890e+00  2.42673e-02
4
# CELL(abcABC): 1000.00000  1000.00000  1000.00000    90.00000    90.00000    90.00000  Step:           2  Bead:       0 positions{angstrom}  cell{angstrom}
       O -3.14029e+00  1.06698e+00  3.98328e-01
       H -4.10244e+00  1.18884e+00  3.04034e-01
       H -2.84528e+00  2.07278e-01  3.36464e-02
       H -2.59132e+00  1.73817e+00  2.51988e-02
4
# CELL(abcABC): 1000.00000  1000.00000  1000.00000    90.00000    90.00000    90.00000  Step:           3  Bead:       0 positions{angstrom}  cell{angstrom}
       O -3.13850e+00  1.06655e+00  3.98053e-01
       H -4.11712e+00  1.18315e+00  3.08620e-01
       H -2.84530e+00  2.06698e-01  3.55683e-02
       H -2.60504e+00  1.75119e+00  2.30533e-02
4
# CELL(abcABC): 1000.00000  1000.00000  1000.00000    90.00000    90.00000    90.00000  Step:           4  Bead:       0 positions{angstrom}  cell{angstrom}
       O -3.13689e+00  1.06593e+00  3.98005e-01
       H -4.13110e+00  1.17668e+00  3.11804e-01
       H -2.84508e+00  2.06609e-01  3.70338e-02
       H -2.61688e+00  1.76771e+00  1.91593e-02
4
# CELL(abcABC): 1000.00000  1000.00000  1000.00000    90.00000    90.00000    90.00000  Step:           5  Bead:       0 positions{angstrom}  cell{angstrom}
       O -3.13539e+00  1.06501e+00  3.98129e-01
       H -4.14355e+00  1.17037e+00  3.14587e-01
       H -2.84577e+00  2.07558e-01  3.94167e-02
       H -2.62743e+00  1.78764e+00  1.20238e-02
4
# CELL(abcABC): 1000.00000  1000.00000  1000.00000    90.00000    90.00000    90.00000  Step:           6  Bead:       0 positions{angstrom}  cell{angstrom}
       O -3.13405e+00  1.06410e+00  3.98395e-01
       H -4.15248e+00  1.16423e+00  3.16429e-01
       H -2.84716e+00  2.06616e-01  4.05441e-02
       H -2.63851e+00  1.80914e+00  4.83884e-03
4
# CELL(abcABC): 1000.00000  1000.00000  1000.00000    90.00000    90.00000    90.00000  Step:           7  Bead:       0 positions{angstrom}  cell{angstrom}
       O -3.13301e+00  1.06313e+00  3.98538e-01
       H -4.15576e+00  1.15784e+00  3.19675e-01
       H -2.84864e+00  2.04957e-01  4.21017e-02
       H -2.65018e+00  1.83266e+00 -2.24077e-03
4
# CELL(abcABC): 1000.00000  1000.00000  1000.00000    90.00000    90.00000    90.00000  Step:           8  Bead:       0 positions{angstrom}  cell{angstrom}
       O -3.13231e+00  1.06229e+00  3.98764e-01
       H -4.15360e+00  1.15113e+00  3.22461e-01
       H -2.84888e+00  2.01962e-01  4.25724e-02
       H -2.66320e+00  1.85568e+00 -9.08642e-03
4
# CELL(abcABC): 1000.00000  1000.00000  1000.00000    90.00000    90.00000    90.00000  Step:           9  Bead:       0 positions{angstrom}  cell{angstrom}
       O -3.13187e+00  1.06173e+00  3.98849e-01
       H -4.14708e+00  1.14318e+00  3.26615e-01
       H -2.84774e+00  1.98833e-01  4.32030e-02
       H -2.67785e+00  1.87563e+00 -1.52194e-02
4
# CELL(abcABC): 1000.00000  1000.00000  1000.00000    90.00000    90.00000    90.00000  Step:          10  Bead:       0 positions{angstrom}  cell{angstrom}
       O -3.13160e+00  1.06134e+00  3.99012e-01
       H -4.13664e+00  1.13480e+00  3.30253e-01
       H -2.84602e+00  1.96319e-01  4.27114e-02
       H -2.69434e+00  1.89276e+00 -2.09474e-02
4
# CELL(abcABC): 1000.00000  1000.00000  1000.00000    90.00000    90.00000    90.00000  Step:          11  Bead:       0 positions{angstrom}  cell{angstrom}
       O -3.13142e+00  1.06121e+00  3.99252e-01
       H -4.12308e+00  1.12681e+00  3.32809e-01
       H -2.84515e+00  1.93708e-01  4.14616e-02
       H -2.71159e+00  1.90540e+00 -2.60712e-02
4
# CELL(abcABC): 1000.00000  1000.00000  1000.00000    90.00000    90.00000    90.00000  Step:          12  Bead:       0 positions{angstrom}  cell{angstrom}
       O -3.13141e+00  1.06140e+00  3.99494e-01
       H -4.10665e+00  1.11844e+00  3.35235e-01
       H -2.84393e+00  1.90357e-01  3.89288e-02
       H -2.72946e+00  1.91413e+00 -2.97997e-02
4
# CELL(abcABC): 1000.00000  1000.00000  1000.00000    90.00000    90.00000    90.00000  Step:          13  Bead:       0 positions{angstrom}  cell{angstrom}
       O -3.13139e+00  1.06184e+00  3.99635e-01
       H -4.09042e+00  1.11060e+00  3.38090e-01
       H -2.84107e+00  1.87783e-01  3.62587e-02
       H -2.74880e+00  1.91757e+00 -3.22240e-02
4
# CELL(abcABC): 1000.00000  1000.00000  1000.00000    90.00000    90.00000    90.00000  Step:          14  Bead:       0 positions{angstrom}  cell{angstrom}
       O -3.13127e+00  1.06244e+00  3.99653e-01
       H -4.07515e+00  1.10256e+00  3.41585e-01
       H -2.83742e+00  1.87183e-01  3.35779e-02
       H -2.76969e+00  1.91658e+00 -3.33237e-02
4
# CELL(abcABC): 1000.00000  1000.00000  1000.00000    90.00000    90.00000    90.00000  Step:          15  Bead:       0 positions{angstrom}  cell{angstrom}
       O -3.13080e+00  1.06306e+00  3.99373e-01
       H -4.06640e+00  1.09418e+00  3.47516e-01
       H -2.83415e+00  1.88821e-01  3.12272e-02
       H -2.78917e+00  1.91346e+00 -3.24553e-02
4
# CELL(abcABC): 1000.00000  1000.00000  1000.00000    90.00000    90.00000    90.00000  Step:          16  Bead:       0 positions{angstrom}  cell{angstrom}
       O -3.13003e+00  1.06368e+00  3.99020e-01
       H -4.06254e+00  1.08561e+00  3.53499e-01
       H -2.83086e+00  1.93400e-01  2.91083e-02
       H -2.80845e+00  1.90772e+00 -3.07233e-02
4
# CELL(abcABC): 1000.00000  1000.00000  1000.00000    90.00000    90.00000    90.00000  Step:          17  Bead:       0 positions{angstrom}  cell{angstrom}
       O -3.12883e+00  1.06429e+00  3.98618e-01
       H -4.06454e+00  1.07765e+00  3.60213e-01
       H -2.82836e+00  2.00420e-01  2.61076e-02
       H -2.82799e+00  1.89892e+00 -2.80502e-02
4
# CELL(abcABC): 1000.00000  1000.00000  1000.00000    90.00000    90.00000    90.00000  Step:          18  Bead:       0 positions{angstrom}  cell{angstrom}
       O -3.12732e+00  1.06476e+00  3.98214e-01
       H -4.07372e+00  1.07058e+00  3.67757e-01
       H -2.82441e+00  2.08876e-01  2.29055e-02
       H -2.84682e+00  1.89008e+00 -2.59861e-02
4
# CELL(abcABC): 1000.00000  1000.00000  1000.00000    90.00000    90.00000    90.00000  Step:          19  Bead:       0 positions{angstrom}  cell{angstrom}
       O -3.12575e+00  1.06517e+00  3.97851e-01
       H -4.08711e+00  1.06335e+00  3.76530e-01
       H -2.82075e+00  2.17706e-01  1.86612e-02
       H -2.86199e+00  1.88204e+00 -2.47480e-02
4
# CELL(abcABC): 1000.00000  1000.00000  1000.00000    90.00000    90.00000    90.00000  Step:          20  Bead:       0 positions{angstrom}  cell{angstrom}
       O -3.12419e+00  1.06546e+00  3.97664e-01
       H -4.10298e+00  1.05649e+00  3.84714e-01
       H -2.81743e+00  2.27047e-01  1.40236e-02
       H -2.87411e+00  1.87488e+00 -2.53300e-02
4
# CELL(abcABC): 1000.00000  1000.00000  1000.00000    90.00000    90.00000    90.00000  Step:          21  Bead:       0 positions{angstrom}  cell{angstrom}
       O -3.12291e+00  1.06557e+00  3.97733e-01
       H -4.11968e+00  1.04903e+00  3.92471e-01
       H -2.81172e+00  2.36759e-01  9.43305e-03
       H -2.88358e+00  1.87089e+00 -2.95853e-02
4
# CELL(abcABC): 1000.00000  1000.00000  1000.00000    90.00000    90.00000    90.00000  Step:          22  Bead:       0 positions{angstrom}  cell{angstrom}
       O -3.12202e+00  1.06542e+00  3.98128e-01
       H -4.13593e+00  1.04061e+00  4.01816e-01
       H -2.80287e+00  2.45965e-01  2.08781e-03
       H -2.89026e+00  1.87248e+00 -3.78521e-02
4
# CELL(abcABC): 1000.00000  1000.00000  1000.00000    90.00000    90.00000    90.00000  Step:          23  Bead:       0 positions{angstrom}  cell{angstrom}
       O -3.12160e+00  1.06512e+00  3.98947e-01
       H -4.14879e+00  1.03268e+00  4.11103e-01
       H -2.79202e+00  2.54589e-01 -6.13405e-03
       H -2.89497e+00  1.87659e+00 -5.19268e-02
4
# CELL(abcABC): 1000.00000  1000.00000  1000.00000    90.00000    90.00000    90.00000  Step:          24  Bead:       0 positions{angstrom}  cell{angstrom}
       O -3.12167e+00  1.06464e+00  3.99983e-01
       H -4.15667e+00  1.02377e+00  4.20645e-01
       H -2.77973e+00  2.63059e-01 -1.53530e-02
       H -2.89823e+00  1.88456e+00 -6.86908e-02
4
# CELL(abcABC): 1000.00000  1000.00000  1000.00000    90.00000    90.00000    90.00000  Step:          25  Bead:       0 positions{angstrom}  cell{angstrom}
       O -3.12216e+00  1.06427e+00  4.01076e-01
       H -4.15954e+00  1.01396e+00  4.31168e-01
       H -2.76689e+00  2.69637e-01 -2.55063e-02
       H -2.90045e+00  1.89376e+00 -8.64029e-02
4
# CELL(abcABC): 1000.00000  1000.00000  1000.00000    90.00000    90.00000    90.00000  Step:          26  Bead:       0 positions{angstrom}  cell{angstrom}
       O -3.12304e+00  1.06406e+00  4.02212e-01
       H -4.15713e+00  1.00363e+00  4.41014e-01
       H -2.75319e+00  2.74913e-01 -3.66772e-02
       H -2.90260e+00  1.90210e+00 -1.03112e-01
4
# CELL(abcABC): 1000.00000  1000.00000  1000.00000    90.00000    90.00000    90.00000  Step:          27  Bead:       0 positions{angstrom}  cell{angstrom}
       O -3.12434e+00  1.06397e+00  4.03363e-01
       H -4.14982e+00  9.94443e-01  4.50083e-01
       H -2.73933e+00  2.78784e-01 -4.85623e-02
       H -2.90300e+00  1.90890e+00 -1.18567e-01
4
# CELL(abcABC): 1000.00000  1000.00000  1000.00000    90.00000    90.00000    90.00000  Step:          28  Bead:       0 positions{angstrom}  cell{angstrom}
       O -3.12583e+00  1.06402e+00  4.04361e-01
       H -4.13909e+00  9.83934e-01  4.58768e-01
       H -2.72528e+00  2.82823e-01 -6.00191e-02
       H -2.90421e+00  1.91446e+00 -1.31638e-01
4
# CELL(abcABC): 1000.00000  1000.00000  1000.00000    90.00000    90.00000    90.00000  Step:          29  Bead:       0 positions{angstrom}  cell{angstrom}
       O -3.12746e+00  1.06419e+00  4.05213e-01
       H -4.12415e+00  9.73935e-01  4.65697e-01
       H -2.71312e+00  2.87458e-01 -7.07538e-02
       H -2.90547e+00  1.91725e+00 -1.41362e-01
4
# CELL(abcABC): 1000.00000  1000.00000  1000.00000    90.00000    90.00000    90.00000  Step:          30  Bead:       0 positions{angstrom}  cell{angstrom}
       O -3.12907e+00  1.06437e+00  4.05812e-01
       H -4.10671e+00  9.65072e-01  4.73009e-01
       H -2.70261e+00  2.93168e-01 -7.98685e-02
       H -2.90775e+00  1.91747e+00 -1.49057e-01
4
# CELL(abcABC): 1000.00000  1000.00000  1000.00000    90.00000    90.00000    90.00000  Step:          31  Bead:       0 positions{angstrom}  cell{angstrom}
       O -3.13066e+00  1.06456e+00  4.06207e-01
       H -4.08742e+00  9.56368e-01  4.80175e-01
       H -2.69329e+00  3.01420e-01 -8.80442e-02
       H -2.91113e+00  1.91495e+00 -1.54324e-01
4
# CELL(abcABC): 1000.00000  1000.00000  1000.00000    90.00000    90.00000    90.00000  Step:          32  Bead:       0 positions{angstrom}  cell{angstrom}
       O -3.13190e+00  1.06496e+00  4.06132e-01
       H -4.07104e+00  9.45540e-01  4.87728e-01
       H -2.68548e+00  3.12445e-01 -9.31931e-02
       H -2.91566e+00  1.90844e+00 -1.55530e-01
4
# CELL(abcABC): 1000.00000  1000.00000  1000.00000    90.00000    90.00000    90.00000  Step:          33  Bead:       0 positions{angstrom}  cell{angstrom}
       O -3.13267e+00  1.06561e+00  4.05652e-01
       H -4.05924e+00  9.33469e-01  4.96421e-01
       H -2.67940e+00  3.23762e-01 -9.59696e-02
       H -2.92140e+00  1.89888e+00 -1.53829e-01
4
# CELL(abcABC): 1000.00000  1000.00000  1000.00000    90.00000    90.00000    90.00000  Step:          34  Bead:       0 positions{angstrom}  cell{angstrom}
       O -3.13276e+00  1.06641e+00  4.04996e-01
       H -4.05243e+00  9.20395e-01  5.04957e-01
       H -2.67713e+00  3.35461e-01 -9.65874e-02
       H -2.92905e+00  1.88742e+00 -1.51345e-01
4
# CELL(abcABC): 1000.00000  1000.00000  1000.00000    90.00000    90.00000    90.00000  Step:          35  Bead:       0 positions{angstrom}  cell{angstrom}
       O -3.13233e+00  1.06730e+00  4.04124e-01
       H -4.04989e+00  9.06287e-01  5.12777e-01
       H -2.67780e+00  3.48350e-01 -9.49627e-02
       H -2.93771e+00  1.87458e+00 -1.46946e-01
4
# CELL(abcABC): 1000.00000  1000.00000  1000.00000    90.00000    90.00000    90.00000  Step:          36  Bead:       0 positions{angstrom}  cell{angstrom}
       O -3.13144e+00  1.06818e+00  4.03138e-01
       H -4.05282e+00  8.91268e-01  5.20048e-01
       H -2.67952e+00  3.61907e-01 -9.31026e-02
       H -2.94713e+00  1.86199e+00 -1.40419e-01
4
# CELL(abcABC): 1000.00000  1000.00000  1000.00000    90.00000    90.00000    90.00000  Step:          37  Bead:       0 positions{angstrom}  cell{angstrom}
       O -3.13026e+00  1.06917e+00  4.02016e-01
       H -4.05965e+00  8.76368e-01  5.28897e-01
       H -2.68121e+00  3.73191e-01 -9.13144e-02
       H -2.95736e+00  1.85005e+00 -1.33252e-01
4
# CELL(abcABC): 1000.00000  1000.00000  1000.00000    90.00000    90.00000    90.00000  Step:          38  Bead:       0 positions{angstrom}  cell{angstrom}
       O -3.12874e+00  1.07011e+00  4.01152e-01
       H -4.07031e+00  8.60927e-01  5.36172e-01
       H -2.68255e+00  3.80710e-01 -9.00244e-02
       H -2.96951e+00  1.84290e+00 -1.28098e-01
4
# CELL(abcABC): 1000.00000  1000.00000  1000.00000    90.00000    90.00000    90.00000  Step:          39  Bead:       0 positions{angstrom}  cell{angstrom}
       O -3.12738e+00  1.07109e+00  4.00377e-01
       H -4.08104e+00  8.45052e-01  5.43307e-01
       H -2.68258e+00  3.83704e-01 -8.85446e-02
       H -2.98036e+00  1.84029e+00 -1.24417e-01
4
# CELL(abcABC): 1000.00000  1000.00000  1000.00000    90.00000    90.00000    90.00000  Step:          40  Bead:       0 positions{angstrom}  cell{angstrom}
       O -3.12620e+00  1.07186e+00  3.99673e-01
       H -4.09072e+00  8.29975e-01  5.50515e-01
       H -2.68104e+00  3.83204e-01 -8.63719e-02
       H -2.99088e+00  1.84364e+00 -1.22622e-01
4
# CELL(abcABC): 1000.00000  1000.00000  1000.00000    90.00000    90.00000    90.00000  Step:          41  Bead:       0 positions{angstrom}  cell{angstrom}
       O -3.12527e+00  1.07241e+00  3.99189e-01
       H -4.09822e+00  8.16742e-01  5.56207e-01
       H -2.67742e+00  3.79530e-01 -8.48532e-02
       H -3.00184e+00  1.85191e+00 -1.22145e-01
4
# CELL(abcABC): 1000.00000  1000.00000  1000.00000    90.00000    90.00000    90.00000  Step:          42  Bead:       0 positions{angstrom}  cell{angstrom}
       O -3.12475e+00  1.07287e+00  3.99008e-01
       H -4.10071e+00  8.03108e-01  5.60326e-01
       H -2.67216e+00  3.72841e-01 -8.37483e-02
       H -3.01292e+00  1.86482e+00 -1.24492e-01
4
# CELL(abcABC): 1000.00000  1000.00000  1000.00000    90.00000    90.00000    90.00000  Step:          43  Bead:       0 positions{angstrom}  cell{angstrom}
       O -3.12452e+00  1.07308e+00  3.99033e-01
       H -4.09935e+00  7.91969e-01  5.62768e-01
       H -2.66567e+00  3.65270e-01 -8.28121e-02
       H -3.02441e+00  1.88016e+00 -1.28270e-01
4
# CELL(abcABC): 1000.00000  1000.00000  1000.00000    90.00000    90.00000    90.00000  Step:          44  Bead:       0 positions{angstrom}  cell{angstrom}
       O -3.12454e+00  1.07318e+00  3.99177e-01
       H -4.09350e+00  7.81937e-01  5.63258e-01
       H -2.65841e+00  3.56016e-01 -8.23330e-02
       H -3.03708e+00  1.89798e+00 -1.31525e-01
4
# CELL(abcABC): 1000.00000  1000.00000  1000.00000    90.00000    90.00000    90.00000  Step:          45  Bead:       0 positions{angstrom}  cell{angstrom}
       O -3.12471e+00  1.07318e+00  3.99416e-01
       H -4.08419e+00  7.73810e-01  5.61832e-01
       H -2.65025e+00  3.45921e-01 -8.21938e-02
       H -3.05198e+00  1.91619e+00 -1.34038e-01
4
# CELL(abcABC): 1000.00000  1000.00000  1000.00000    90.00000    90.00000    90.00000  Step:          46  Bead:       0 positions{angstrom}  cell{angstrom}
       O -3.12507e+00  1.07312e+00  3.99643e-01
       H -4.07150e+00  7.67939e-01  5.58871e-01
       H -2.64251e+00  3.35846e-01 -8.16204e-02
       H -3.06661e+00  1.93306e+00 -1.35252e-01
4
# CELL(abcABC): 1000.00000  1000.00000  1000.00000    90.00000    90.00000    90.00000  Step:          47  Bead:       0 positions{angstrom}  cell{angstrom}
       O -3.12549e+00  1.07290e+00  3.99878e-01
       H -4.05627e+00  7.63170e-01  5.55291e-01
       H -2.63539e+00  3.27828e-01 -8.06509e-02
       H -3.08234e+00  1.94938e+00 -1.36364e-01
4
# CELL(abcABC): 1000.00000  1000.00000  1000.00000    90.00000    90.00000    90.00000  Step:          48  Bead:       0 positions{angstrom}  cell{angstrom}
       O -3.12586e+00  1.07275e+00  3.99922e-01
       H -4.03935e+00  7.58312e-01  5.51431e-01
       H -2.62941e+00  3.22998e-01 -7.89413e-02
       H -3.09926e+00  1.96137e+00 -1.34924e-01
4
# CELL(abcABC): 1000.00000  1000.00000  1000.00000    90.00000    90.00000    90.00000  Step:          49  Bead:       0 positions{angstrom}  cell{angstrom}
       O -3.12616e+00  1.07264e+00  3.99630e-01
       H -4.02272e+00  7.53362e-01  5.47922e-01
       H -2.62355e+00  3.20972e-01 -7.55652e-02
       H -3.11702e+00  1.97016e+00 -1.30149e-01
4
# CELL(abcABC): 1000.00000  1000.00000  1000.00000    90.00000    90.00000    90.00000  Step:          50  Bead:       0 positions{angstrom}  cell{angstrom}
       O -3.12607e+00  1.07266e+00  3.99187e-01
       H -4.00850e+00  7.48281e-01  5.44266e-01
       H -2.62080e+00  3.21590e-01 -7.06135e-02
       H -3.13552e+00  1.97419e+00 -1.24422e-01
4
# CELL(abcABC): 1000.00000  1000.00000  1000.00000    90.00000    90.00000    90.00000  Step:          51  Bead:       0 positions{angstrom}  cell{angstrom}
       O -3.12568e+00  1.07280e+00  3.98509e-01
       H -3.99825e+00  7.41962e-01  5.40660e-01
       H -2.61969e+00  3.25905e-01 -6.45512e-02
       H -3.15302e+00  1.97411e+00 -1.16103e-01
4
# CELL(abcABC): 1000.00000  1000.00000  1000.00000    90.00000    90.00000    90.00000  Step:          52  Bead:       0 positions{angstrom}  cell{angstrom}
       O -3.12494e+00  1.07316e+00  3.97716e-01
       H -3.99303e+00  7.34197e-01  5.37817e-01
       H -2.61988e+00  3.32798e-01 -5.87669e-02
       H -3.16978e+00  1.96918e+00 -1.06469e-01
4
# CELL(abcABC): 1000.00000  1000.00000  1000.00000    90.00000    90.00000    90.00000  Step:          53  Bead:       0 positions{angstrom}  cell{angstrom}
       O -3.12391e+00  1.07364e+00  3.96717e-01
       H -3.99211e+00  7.25607e-01  5.34959e-01
       H -2.62099e+00  3.43823e-01 -5.19682e-02
       H -3.18589e+00  1.95913e+00 -9.45382e-02
4
# CELL(abcABC): 1000.00000  1000.00000  1000.00000    90.00000    90.00000    90.00000  Step:          54  Bead:       0 positions{angstrom}  cell{angstrom}
       O -3.12264e+00  1.07433e+00  3.95355e-01
       H -3.99572e+00  7.14902e-01  5.34147e-01
       H -2.62246e+00  3.57508e-01 -4.46364e-02
       H -3.20105e+00  1.94521e+00 -7.94383e-02
4
# CELL(abcABC): 1000.00000  1000.00000  1000.00000    90.00000    90.00000    90.00000  Step:          55  Bead:       0 positions{angstrom}  cell{angstrom}
       O -3.12132e+00  1.07511e+00  3.93964e-01
       H -4.00319e+00  7.03518e-01  5.35046e-01
       H -2.62290e+00  3.72190e-01 -3.76411e-02
       H -3.21410e+00  1.92957e+00 -6.52553e-02
4
# CELL(abcABC): 1000.00000  1000.00000  1000.00000    90.00000    90.00000    90.00000  Step:          56  Bead:       0 positions{angstrom}  cell{angstrom}
       O -3.12014e+00  1.07584e+00  3.92704e-01
       H -4.01015e+00  6.92164e-01  5.37350e-01
       H -2.62163e+00  3.86283e-01 -3.35703e-02
       H -3.22707e+00  1.91519e+00 -5.16271e-02
4
# CELL(abcABC): 1000.00000  1000.00000  1000.00000    90.00000    90.00000    90.00000  Step:          57  Bead:       0 positions{angstrom}  cell{angstrom}
       O -3.11918e+00  1.07643e+00  3.91651e-01
       H -4.01567e+00  6.81675e-01  5.40849e-01
       H -2.61872e+00  3.98495e-01 -3.10558e-02
       H -3.23979e+00  1.90409e+00 -4.09329e-02
4
# CELL(abcABC): 1000.00000  1000.00000  1000.00000    90.00000    90.00000    90.00000  Step:          58  Bead:       0 positions{angstrom}  cell{angstrom}
       O -3.11862e+00  1.07689e+00  3.90962e-01
       H -4.01902e+00  6.71127e-01  5.44750e-01
       H -2.61201e+00  4.08398e-01 -3.09839e-02
       H -3.25201e+00  1.89752e+00 -3.39678e-02
4
# CELL(abcABC): 1000.00000  1000.00000  1000.00000    90.00000    90.00000    90.00000  Step:          59  Bead:       0 positions{angstrom}  cell{angstrom}
       O -3.11852e+00  1.07706e+00  3.90579e-01
       H -4.01942e+00  6.61674e-01  5.49196e-01
       H -2.60123e+00  4.16123e-01 -3.25738e-02
       H -3.26391e+00  1.89656e+00 -3.07497e-02
4
# CELL(abcABC): 1000.00000  1000.00000  1000.00000    90.00000    90.00000    90.00000  Step:          60  Bead:       0 positions{angstrom}  cell{angstrom}
       O -3.11891e+00  1.07701e+00  3.90671e-01
       H -4.01826e+00  6.52981e-01  5.54076e-01
       H -2.58594e+00  4.20674e-01 -3.88359e-02
       H -3.27424e+00  1.90138e+00 -3.08323e-02
4
# CELL(abcABC): 1000.00000  1000.00000  1000.00000    90.00000    90.00000    90.00000  Step:          61  Bead:       0 positions{angstrom}  cell{angstrom}
       O -3.11982e+00  1.07675e+00  3.91166e-01
       H -4.01332e+00  6.44960e-01  5.58938e-01
       H -2.56639e+00  4.23211e-01 -4.88732e-02
       H -3.28432e+00  1.91104e+00 -3.35016e-02
4
# CELL(abcABC): 1000.00000  1000.00000  1000.00000    90.00000    90.00000    90.00000  Step:          62  Bead:       0 positions{angstrom}  cell{angstrom}
       O -3.12101e+00  1.07633e+00  3.92064e-01
       H -4.00632e+00  6.37227e-01  5.63505e-01
       H -2.54623e+00  4.24678e-01 -6.09655e-02
       H -3.29254e+00  1.92391e+00 -4.02353e-02
4
# CELL(abcABC): 1000.00000  1000.00000  1000.00000    90.00000    90.00000    90.00000  Step:          63  Bead:       0 positions{angstrom}  cell{angstrom}
       O -3.12241e+00  1.07562e+00  3.92958e-01
       H -3.99647e+00  6.31467e-01  5.68637e-01
       H -2.52602e+00  4.26004e-01 -7.37690e-02
       H -3.30038e+00  1.93963e+00 -4.67541e-02
4
# CELL(abcABC): 1000.00000  1000.00000  1000.00000    90.00000    90.00000    90.00000  Step:          64  Bead:       0 positions{angstrom}  cell{angstrom}
       O -3.12399e+00  1.07478e+00  3.93834e-01
       H -3.98352e+00  6.26755e-01  5.74852e-01
       H -2.50642e+00  4.28758e-01 -8.61212e-02
       H -3.30782e+00  1.95491e+00 -5.45155e-02
4
# CELL(abcABC): 1000.00000  1000.00000  1000.00000    90.00000    90.00000    90.00000  Step:          65  Bead:       0 positions{angstrom}  cell{angstrom}
       O -3.12560e+00  1.07384e+00  3.94636e-01
       H -3.97045e+00  6.23039e-01  5.80148e-01
       H -2.48827e+00  4.35232e-01 -9.73676e-02
       H -3.31350e+00  1.96716e+00 -6.13024e-02
4
# CELL(abcABC): 1000.00000  1000.00000  1000.00000    90.00000    90.00000    90.00000  Step:          66  Bead:       0 positions{angstrom}  cell{angstrom}
       O -3.12713e+00  1.07282e+00  3.95155e-01
       H -3.95771e+00  6.21818e-01  5.86396e-01
       H -2.47294e+00  4.43228e-01 -1.06377e-01
       H -3.31731e+00  1.97658e+00 -6.67854e-02
4
# CELL(abcABC): 1000.00000  1000.00000  1000.00000    90.00000    90.00000    90.00000  Step:          67  Bead:       0 positions{angstrom}  cell{angstrom}
       O -3.12837e+00  1.07197e+00  3.95403e-01
       H -3.94619e+00  6.19147e-01  5.92259e-01
       H -2.46068e+00  4.54588e-01 -1.12454e-01
       H -3.32139e+00  1.98132e+00 -7.05074e-02
4
# CELL(abcABC): 1000.00000  1000.00000  1000.00000    90.00000    90.00000    90.00000  Step:          68  Bead:       0 positions{angstrom}  cell{angstrom}
       O -3.12933e+00  1.07124e+00  3.95482e-01
       H -3.93655e+00  6.15050e-01  5.98388e-01
       H -2.45200e+00  4.69328e-01 -1.17444e-01
       H -3.32451e+00  1.98223e+00 -7.29005e-02
4
# CELL(abcABC): 1000.00000  1000.00000  1000.00000    90.00000    90.00000    90.00000  Step:          69  Bead:       0 positions{angstrom}  cell{angstrom}
       O -3.12984e+00  1.07085e+00  3.95045e-01
       H -3.93051e+00  6.07762e-01  6.06803e-01
       H -2.44802e+00  4.87281e-01 -1.18779e-01
       H -3.32634e+00  1.97787e+00 -7.30316e-02
4
# CELL(abcABC): 1000.00000  1000.00000  1000.00000    90.00000    90.00000    90.00000  Step:          70  Bead:       0 positions{angstrom}  cell{angstrom}
       O -3.13014e+00  1.07055e+00  3.94289e-01
       H -3.92731e+00  5.99248e-01  6.14902e-01
       H -2.44757e+00  5.08675e-01 -1.17825e-01
       H -3.32528e+00  1.96972e+00 -7.00922e-02
4
# CELL(abcABC): 1000.00000  1000.00000  1000.00000    90.00000    90.00000    90.00000  Step:          71  Bead:       0 positions{angstrom}  cell{angstrom}
       O -3.13006e+00  1.07056e+00  3.93328e-01
       H -3.92763e+00  5.87917e-01  6.22067e-01
       H -2.45069e+00  5.31516e-01 -1.15158e-01
       H -3.32310e+00  1.95806e+00 -6.46762e-02
4
# CELL(abcABC): 1000.00000  1000.00000  1000.00000    90.00000    90.00000    90.00000  Step:          72  Bead:       0 positions{angstrom}  cell{angstrom}
       O -3.12979e+00  1.07066e+00  3.92130e-01
       H -3.92949e+00  5.75578e-01  6.29665e-01
       H -2.45579e+00  5.55540e-01 -1.10234e-01
       H -3.32040e+00  1.94474e+00 -5.81713e-02
4
# CELL(abcABC): 1000.00000  1000.00000  1000.00000    90.00000    90.00000    90.00000  Step:          73  Bead:       0 positions{angstrom}  cell{angstrom}
       O -3.12938e+00  1.07094e+00  3.90925e-01
       H -3.93227e+00  5.62405e-01  6.36919e-01
       H -2.46179e+00  5.79757e-01 -1.04675e-01
       H -3.31814e+00  1.92923e+00 -5.18652e-02
4
# CELL(abcABC): 1000.00000  1000.00000  1000.00000    90.00000    90.00000    90.00000  Step:          74  Bead:       0 positions{angstrom}  cell{angstrom}
       O -3.12904e+00  1.07125e+00  3.89942e-01
       H -3.93435e+00  5.49298e-01  6.42304e-01
       H -2.46709e+00  6.02448e-01 -1.00777e-01
       H -3.31610e+00  1.91473e+00 -4.55450e-02
4
# CELL(abcABC): 1000.00000  1000.00000  1000.00000    90.00000    90.00000    90.00000  Step:          75  Bead:       0 positions{angstrom}  cell{angstrom}
       O -3.12872e+00  1.07163e+00  3.89163e-01
       H -3.93557e+00  5.35775e-01  6.46243e-01
       H -2.47069e+00  6.21653e-01 -9.77352e-02
       H -3.31647e+00  1.90312e+00 -4.01549e-02
4
# CELL(abcABC): 1000.00000  1000.00000  1000.00000    90.00000    90.00000    90.00000  Step:          76  Bead:       0 positions{angstrom}  cell{angstrom}
       O -3.12875e+00  1.07184e+00  3.88583e-01
       H -3.93383e+00  5.23605e-01  6.50113e-01
       H -2.47072e+00  6.36908e-01 -9.72105e-02
       H -3.31774e+00  1.89662e+00 -3.53398e-02
4
# CELL(abcABC): 1000.00000  1000.00000  1000.00000    90.00000    90.00000    90.00000  Step:          77  Bead:       0 positions{angstrom}  cell{angstrom}
       O -3.12902e+00  1.07195e+00  3.88359e-01
       H -3.92956e+00  5.13818e-01  6.52686e-01
       H -2.46663e+00  6.47818e-01 -9.92592e-02
       H -3.32171e+00  1.89381e+00 -3.23048e-02
4
# CELL(abcABC): 1000.00000  1000.00000  1000.00000    90.00000    90.00000    90.00000  Step:          78  Bead:       0 positions{angstrom}  cell{angstrom}
       O -3.12957e+00  1.07196e+00  3.88706e-01
       H -3.92373e+00  5.04996e-01  6.52957e-01
       H -2.45702e+00  6.54640e-01 -1.04782e-01
       H -3.32845e+00  1.89563e+00 -3.25643e-02
4
# CELL(abcABC): 1000.00000  1000.00000  1000.00000    90.00000    90.00000    90.00000  Step:          79  Bead:       0 positions{angstrom}  cell{angstrom}
       O -3.13045e+00  1.07196e+00  3.89377e-01
       H -3.91592e+00  4.98359e-01  6.53123e-01
       H -2.44217e+00  6.56441e-01 -1.13099e-01
       H -3.33712e+00  1.90048e+00 -3.50604e-02
4
# CELL(abcABC): 1000.00000  1000.00000  1000.00000    90.00000    90.00000    90.00000  Step:          80  Bead:       0 positions{angstrom}  cell{angstrom}
       O -3.13159e+00  1.07187e+00  3.90189e-01
       H -3.90541e+00  4.93529e-01  6.51998e-01
       H -2.42452e+00  6.54869e-01 -1.21752e-01
       H -3.34724e+00  1.90829e+00 -3.81720e-02
4
# CELL(abcABC): 1000.00000  1000.00000  1000.00000    90.00000    90.00000    90.00000  Step:          81  Bead:       0 positions{angstrom}  cell{angstrom}
       O -3.13282e+00  1.07156e+00  3.91180e-01
       H -3.89109e+00  4.90770e-01  6.49128e-01
       H -2.40688e+00  6.53279e-01 -1.30254e-01
       H -3.35971e+00  1.91748e+00 -4.25445e-02
4
# CELL(abcABC): 1000.00000  1000.00000  1000.00000    90.00000    90.00000    90.00000  Step:          82  Bead:       0 positions{angstrom}  cell{angstrom}
       O -3.13393e+00  1.07138e+00  3.92061e-01
       H -3.87535e+00  4.87983e-01  6.46204e-01
       H -2.38993e+00  6.49700e-01 -1.37696e-01
       H -3.37475e+00  1.92681e+00 -4.61517e-02
4
# CELL(abcABC): 1000.00000  1000.00000  1000.00000    90.00000    90.00000    90.00000  Step:          83  Bead:       0 positions{angstrom}  cell{angstrom}
       O -3.13482e+00  1.07118e+00  3.92805e-01
       H -3.85993e+00  4.85394e-01  6.43264e-01
       H -2.37550e+00  6.46698e-01 -1.43049e-01
       H -3.39036e+00  1.93555e+00 -4.96668e-02
4
# CELL(abcABC): 1000.00000  1000.00000  1000.00000    90.00000    90.00000    90.00000  Step:          84  Bead:       0 positions{angstrom}  cell{angstrom}
       O -3.13534e+00  1.07111e+00  3.93346e-01
       H -3.84495e+00  4.80998e-01  6.39244e-01
       H -2.36566e+00  6.44816e-01 -1.45783e-01
       H -3.40706e+00  1.94287e+00 -5.15022e-02
4
# CELL(abcABC): 1000.00000  1000.00000  1000.00000    90.00000    90.00000    90.00000  Step:          85  Bead:       0 positions{angstrom}  cell{angstrom}