4
# CELL(abcABC): 1000.00000  1000.00000  1000.00000    90.00000    90.00000    90.00000  Step:         377  Bead:       0 positions{angstrom}  cell{angstrom}
       O -3.15502e+00  1.07246e+00  3.50706e-01
       H -3.45044e+00  7.81893e-01  1.17609e+00
       H -2.30927e+00  1.48702e+00  4.09629e-01
       H -3.54533e+00  7.78299e-01 -4.66964e-01
