6
# CELL(abcABC): 1000.00000  1000.00000  1000.00000    90.00000    90.00000    90.00000  Step:         461  Bead:       0 positions{angstrom}  cell{angstrom}
       C -7.05496e-01  2.54705e+00 -3.92182e-01
       H -6.11959e-01  2.99678e+00 -1.32659e+00
       H  2.74677e-01  2.57755e+00  1.95143e-02
       H -1.09906e+00  1.53328e+00 -4.40314e-01
       O -1.53077e+00  3.42050e+00  3.38949e-01
       H -2.36843e+00  3.08773e+00  7.26700e-01
