4
# CELL(abcABC): 1000.00000  1000.00000  1000.00000    90.00000    90.00000    90.00000  Step:           0  Bead:       0 positions{angstrom}  cell{angstrom}
       O -3.15502e+00  1.07246e+00  3.50706e-01
       H -3.45044e+00  7.81893e-01  1.17609e+00
       H -2.30927e+00  1.48702e+00  4.09629e-01
       H -3.54533e+00  7.78299e-01 -4.66964e-01
4
# CELL(abcABC): 1000.00000  1000.00000  1000.00000    90.00000    90.00000    90.00000  Step:           1  Bead:       0 positions{angstrom}  cell{angstrom}
       O -3.15331e+00  1.07277e+00  3.50082e-01
       H -3.46133e+00  7.73946e-01  1.18232e+00
       H -2.30822e+00  1.48685e+00  4.10288e-01
       H -3.56256e+00  7.81454e-01 -4.63945e-01
4
# CELL(abcABC): 1000.00000  1000.00000  1000.00000    90.00000    90.00000    90.00000  Step:           2  Bead:       0 positions{angstrom}  cell{angstrom}
       O -3.15172e+00  1.07305e+00  3.49391e-01
       H -3.47397e+00  7.65479e-01  1.19124e+00
       H -2.30374e+00  1.48769e+00  4.10023e-01
       H -3.57972e+00  7.84613e-01 -4.61631e-01
4
# CELL(abcABC): 1000.00000  1000.00000  1000.00000    90.00000    90.00000    90.00000  Step:           3  Bead:       0 positions{angstrom}  cell{angstrom}
       O -3.15016e+00  1.07331e+00  3.48675e-01
       H -3.48668e+00  7.55962e-01  1.20216e+00
       H -2.29810e+00  1.49052e+00  4.09567e-01
       H -3.59737e+00  7.87288e-01 -4.60728e-01
4
# CELL(abcABC): 1000.00000  1000.00000  1000.00000    90.00000    90.00000    90.00000  Step:           4  Bead:       0 positions{angstrom}  cell{angstrom}
       O -3.14875e+00  1.07350e+00  3.48195e-01
       H -3.49922e+00  7.46207e-01  1.21024e+00
       H -2.29107e+00  1.49469e+00  4.07935e-01
       H -3.61432e+00  7.89794e-01 -4.59558e-01
4
# CELL(abcABC): 1000.00000  1000.00000  1000.00000    90.00000    90.00000    90.00000  Step:           5  Bead:       0 positions{angstrom}  cell{angstrom}
       O -3.14738e+00  1.07345e+00  3.47983e-01
       H -3.51128e+00  7.38072e-01  1.21484e+00
       H -2.28478e+00  1.50037e+00  4.06689e-01
       H -3.63030e+00  7.93116e-01 -4.59562e-01
4
# CELL(abcABC): 1000.00000  1000.00000  1000.00000    90.00000    90.00000    90.00000  Step:           6  Bead:       0 positions{angstrom}  cell{angstrom}
       O -3.14605e+00  1.07331e+00  3.48069e-01
       H -3.52136e+00  7.32255e-01  1.21438e+00
       H -2.28004e+00  1.50446e+00  4.03940e-01
       H -3.64600e+00  7.96939e-01 -4.57717e-01
4
# CELL(abcABC): 1000.00000  1000.00000  1000.00000    90.00000    90.00000    90.00000  Step:           7  Bead:       0 positions{angstrom}  cell{angstrom}
       O -3.14494e+00  1.07292e+00  3.48221e-01
       H -3.52763e+00  7.28755e-01  1.21076e+00
       H -2.27698e+00  1.50787e+00  4.01606e-01
       H -3.66045e+00  8.03294e-01 -4.54167e-01
4
# CELL(abcABC): 1000.00000  1000.00000  1000.00000    90.00000    90.00000    90.00000  Step:           8  Bead:       0 positions{angstrom}  cell{angstrom}
       O -3.14409e+00  1.07237e+00  3.48659e-01
       H -3.53029e+00  7.27647e-01  1.20214e+00
       H -2.27477e+00  1.50977e+00  3.98371e-01
       H -3.67354e+00  8.11218e-01 -4.49272e-01
4
# CELL(abcABC): 1000.00000  1000.00000  1000.00000    90.00000    90.00000    90.00000  Step:           9  Bead:       0 positions{angstrom}  cell{angstrom}
       O -3.14344e+00  1.07176e+00  3.49147e-01
       H -3.53026e+00  7.27905e-01  1.19097e+00
       H -2.27358e+00  1.51099e+00  3.95590e-01
       H -3.68496e+00  8.19492e-01 -4.43065e-01
4
# CELL(abcABC): 1000.00000  1000.00000  1000.00000    90.00000    90.00000    90.00000  Step:          10  Bead:       0 positions{angstrom}  cell{angstrom}
       O -3.14295e+00  1.07095e+00  3.49867e-01
       H -3.52762e+00  7.30013e-01  1.17637e+00
       H -2.27438e+00  1.51190e+00  3.92030e-01
       H -3.69462e+00  8.29340e-01 -4.36323e-01
4
# CELL(abcABC): 1000.00000  1000.00000  1000.00000    90.00000    90.00000    90.00000  Step:          11  Bead:       0 positions{angstrom}  cell{angstrom}
       O -3.14258e+00  1.07005e+00  3.50745e-01
       H -3.52266e+00  7.34181e-01  1.15931e+00
       H -2.27857e+00  1.51147e+00  3.88095e-01
       H -3.70136e+00  8.39756e-01 -4.29279e-01
4
# CELL(abcABC): 1000.00000  1000.00000  1000.00000    90.00000    90.00000    90.00000  Step:          12  Bead:       0 positions{angstrom}  cell{angstrom}
       O -3.14243e+00  1.06917e+00  3.51595e-01
       H -3.51505e+00  7.38761e-01  1.14289e+00
       H -2.28457e+00  1.50893e+00  3.83285e-01
       H -3.70526e+00  8.51690e-01 -4.21529e-01
4
# CELL(abcABC): 1000.00000  1000.00000  1000.00000    90.00000    90.00000    90.00000  Step:          13  Bead:       0 positions{angstrom}  cell{angstrom}
       O -3.14242e+00  1.06831e+00  3.52186e-01
       H -3.50701e+00  7.43595e-01  1.13014e+00
       H -2.29037e+00  1.50564e+00  3.78689e-01
       H -3.70762e+00  8.63788e-01 -4.13570e-01
4
# CELL(abcABC): 1000.00000  1000.00000  1000.00000    90.00000    90.00000    90.00000  Step:          14  Bead:       0 positions{angstrom}  cell{angstrom}
       O -3.14252e+00  1.06749e+00  3.52376e-01
       H -3.49826e+00  7.46926e-01  1.12362e+00
       H -2.29604e+00  1.50270e+00  3.74331e-01
       H -3.70919e+00  8.76547e-01 -4.05707e-01
4
# CELL(abcABC): 1000.00000  1000.00000  1000.00000    90.00000    90.00000    90.00000  Step:          15  Bead:       0 positions{angstrom}  cell{angstrom}
       O -3.14256e+00  1.06662e+00  3.51909e-01
       H -3.49289e+00  7.47895e-01  1.12672e+00
       H -2.30205e+00  1.50043e+00  3.70455e-01
       H -3.70793e+00  8.91566e-01 -3.97518e-01
4
# CELL(abcABC): 1000.00000  1000.00000  1000.00000    90.00000    90.00000    90.00000  Step:          16  Bead:       0 positions{angstrom}  cell{angstrom}
       O -3.14265e+00  1.06574e+00  3.51043e-01
       H -3.48795e+00  7.46685e-01  1.13690e+00
       H -2.30729e+00  1.49984e+00  3.66940e-01
       H -3.70613e+00  9.07406e-01 -3.90424e-01
4
# CELL(abcABC): 1000.00000  1000.00000  1000.00000    90.00000    90.00000    90.00000  Step:          17  Bead:       0 positions{angstrom}  cell{angstrom}
       O -3.14268e+00  1.06485e+00  3.49894e-01
       H -3.48335e+00  7.44602e-01  1.15345e+00
       H -2.31210e+00  1.50090e+00  3.62726e-01
       H -3.70547e+00  9.22433e-01 -3.84543e-01
4
# CELL(abcABC): 1000.00000  1000.00000  1000.00000    90.00000    90.00000    90.00000  Step:          18  Bead:       0 positions{angstrom}  cell{angstrom}
       O -3.14272e+00  1.06383e+00  3.48643e-01
       H -3.48012e+00  7.42807e-01  1.17421e+00
       H -2.31399e+00  1.50326e+00  3.58622e-01
       H -3.70620e+00  9.38148e-01 -3.81322e-01
4
# CELL(abcABC): 1000.00000  1000.00000  1000.00000    90.00000    90.00000    90.00000  Step:          19  Bead:       0 positions{angstrom}  cell{angstrom}
       O -3.14291e+00  1.06274e+00  3.47460e-01
       H -3.47596e+00  7.41249e-01  1.19691e+00
       H -2.31485e+00  1.50636e+00  3.53964e-01
       H -3.70642e+00  9.53817e-01 -3.80589e-01
4
# CELL(abcABC): 1000.00000  1000.00000  1000.00000    90.00000    90.00000    90.00000  Step:          20  Bead:       0 positions{angstrom}  cell{angstrom}
       O -3.14317e+00  1.06157e+00  3.46595e-01
       H -3.47050e+00  7.41294e-01  1.21725e+00
       H -2.31505e+00  1.51078e+00  3.49588e-01
       H -3.70754e+00  9.68076e-01 -3.82834e-01
4
# CELL(abcABC): 1000.00000  1000.00000  1000.00000    90.00000    90.00000    90.00000  Step:          21  Bead:       0 positions{angstrom}  cell{angstrom}
       O -3.14359e+00  1.06023e+00  3.46185e-01
       H -3.46380e+00  7.42519e-01  1.23356e+00
       H -2.31237e+00  1.51679e+00  3.46155e-01
       H -3.71038e+00  9.82039e-01 -3.89201e-01
4
# CELL(abcABC): 1000.00000  1000.00000  1000.00000    90.00000    90.00000    90.00000  Step:          22  Bead:       0 positions{angstrom}  cell{angstrom}
       O -3.14412e+00  1.05867e+00  3.46308e-01
       H -3.45642e+00  7.44840e-01  1.24671e+00
       H -2.30696e+00  1.52364e+00  3.41076e-01
       H -3.71464e+00  9.97546e-01 -3.99217e-01
4
# CELL(abcABC): 1000.00000  1000.00000  1000.00000    90.00000    90.00000    90.00000  Step:          23  Bead:       0 positions{angstrom}  cell{angstrom}
       O -3.14472e+00  1.05700e+00  3.47055e-01
       H -3.44707e+00  7.49817e-01  1.25438e+00
       H -2.30103e+00  1.53094e+00  3.36359e-01
       H -3.72039e+00  1.01191e+00 -4.14032e-01
4
# CELL(abcABC): 1000.00000  1000.00000  1000.00000    90.00000    90.00000    90.00000  Step:          24  Bead:       0 positions{angstrom}  cell{angstrom}
       O -3.14535e+00  1.05515e+00  3.48176e-01
       H -3.43555e+00  7.55875e-01  1.25689e+00
       H -2.29608e+00  1.53860e+00  3.31915e-01
       H -3.72693e+00  1.02748e+00 -4.29880e-01
4
# CELL(abcABC): 1000.00000  1000.00000  1000.00000    90.00000    90.00000    90.00000  Step:          25  Bead:       0 positions{angstrom}  cell{angstrom}
       O -3.14589e+00  1.05338e+00  3.49455e-01
       H -3.42287e+00  7.62797e-01  1.25551e+00
       H -2.29378e+00  1.54426e+00  3.27768e-01
       H -3.73332e+00  1.04301e+00 -4.44664e-01
4
# CELL(abcABC): 1000.00000  1000.00000  1000.00000    90.00000    90.00000    90.00000  Step:          26  Bead:       0 positions{angstrom}  cell{angstrom}
       O -3.14634e+00  1.05174e+00  3.50824e-01
       H -3.40949e+00  7.70566e-01  1.24954e+00
       H -2.29404e+00  1.54785e+00  3.23627e-01
       H -3.73931e+00  1.05775e+00 -4.56285e-01
4
# CELL(abcABC): 1000.00000  1000.00000  1000.00000    90.00000    90.00000    90.00000  Step:          27  Bead:       0 positions{angstrom}  cell{angstrom}
       O -3.14678e+00  1.05018e+00  3.52183e-01
       H -3.39616e+00  7.80287e-01  1.24036e+00
       H -2.29738e+00  1.54858e+00  3.19428e-01
       H -3.74224e+00  1.07206e+00 -4.64481e-01
4
# CELL(abcABC): 1000.00000  1000.00000  1000.00000    90.00000    90.00000    90.00000  Step:          28  Bead:       0 positions{angstrom}  cell{angstrom}
       O -3.14705e+00  1.04877e+00  3.53282e-01
       H -3.38448e+00  7.88832e-01  1.23034e+00
       H -2.30309e+00  1.54739e+00  3.15809e-01
       H -3.74400e+00  1.08702e+00 -4.68290e-01
4
# CELL(abcABC): 1000.00000  1000.00000  1000.00000    90.00000    90.00000    90.00000  Step:          29  Bead:       0 positions{angstrom}  cell{angstrom}
       O -3.14721e+00  1.04751e+00  3.54045e-01
       H -3.37341e+00  7.97370e-01  1.22024e+00
       H -2.31227e+00  1.54434e+00  3.12534e-01
       H -3.74337e+00  1.10159e+00 -4.67013e-01
4
# CELL(abcABC): 1000.00000  1000.00000  1000.00000    90.00000    90.00000    90.00000  Step:          30  Bead:       0 positions{angstrom}  cell{angstrom}
       O -3.14724e+00  1.04633e+00  3.54278e-01
       H -3.36395e+00  8.05897e-01  1.21441e+00
       H -2.32340e+00  1.53991e+00  3.09987e-01
       H -3.74117e+00  1.11618e+00 -4.62337e-01
4
# CELL(abcABC): 1000.00000  1000.00000  1000.00000    90.00000    90.00000    90.00000  Step:          31  Bead:       0 positions{angstrom}  cell{angstrom}
       O -3.14731e+00  1.04521e+00  3.53991e-01
       H -3.35546e+00  8.13084e-01  1.21388e+00
       H -2.33445e+00  1.53600e+00  3.07019e-01
       H -3.73751e+00  1.13061e+00 -4.54294e-01
4
# CELL(abcABC): 1000.00000  1000.00000  1000.00000    90.00000    90.00000    90.00000  Step:          32  Bead:       0 positions{angstrom}  cell{angstrom}
       O -3.14730e+00  1.04433e+00  3.52935e-01
       H -3.35068e+00  8.16671e-01  1.21979e+00
       H -2.34426e+00  1.53351e+00  3.05347e-01
       H -3.73271e+00  1.14347e+00 -4.41755e-01
4
# CELL(abcABC): 1000.00000  1000.00000  1000.00000    90.00000    90.00000    90.00000  Step:          33  Bead:       0 positions{angstrom}  cell{angstrom}
       O -3.14725e+00  1.04368e+00  3.51281e-01
       H -3.34918e+00  8.17958e-01  1.23196e+00
       H -2.35189e+00  1.53092e+00  3.04137e-01
       H -3.72736e+00  1.15519e+00 -4.26462e-01
4
# CELL(abcABC): 1000.00000  1000.00000  1000.00000    90.00000    90.00000    90.00000  Step:          34  Bead:       0 positions{angstrom}  cell{angstrom}
       O -3.14708e+00  1.04309e+00  3.49431e-01
       H -3.34955e+00  8.17869e-01  1.24702e+00
       H -2.35855e+00  1.52931e+00  3.03126e-01
       H -3.72293e+00  1.16621e+00 -4.11158e-01
4
# CELL(abcABC): 1000.00000  1000.00000  1000.00000    90.00000    90.00000    90.00000  Step:          35  Bead:       0 positions{angstrom}  cell{angstrom}
       O -3.14701e+00  1.04243e+00  3.47519e-01
       H -3.35003e+00  8.17023e-01  1.26199e+00
       H -2.36279e+00  1.53065e+00  3.02562e-01
       H -3.71943e+00  1.17618e+00 -3.95212e-01
4
# CELL(abcABC): 1000.00000  1000.00000  1000.00000    90.00000    90.00000    90.00000  Step:          36  Bead:       0 positions{angstrom}  cell{angstrom}
       O -3.14701e+00  1.04160e+00  3.45776e-01
       H -3.35160e+00  8.15980e-01  1.27493e+00
       H -2.36293e+00  1.53553e+00  3.00860e-01
       H -3.71764e+00  1.18559e+00 -3.78785e-01
4
# CELL(abcABC): 1000.00000  1000.00000  1000.00000    90.00000    90.00000    90.00000  Step:          37  Bead:       0 positions{angstrom}  cell{angstrom}
       O -3.14707e+00  1.04070e+00  3.44253e-01
       H -3.35347e+00  8.15931e-01  1.28639e+00
       H -2.35898e+00  1.54183e+00  2.98357e-01
       H -3.71875e+00  1.19354e+00 -3.63560e-01
4
# CELL(abcABC): 1000.00000  1000.00000  1000.00000    90.00000    90.00000    90.00000  Step:          38  Bead:       0 positions{angstrom}  cell{angstrom}
       O -3.14689e+00  1.03970e+00  3.43362e-01
       H -3.35689e+00  8.16153e-01  1.29210e+00
       H -2.35229e+00  1.54839e+00  2.95282e-01
       H -3.72488e+00  1.20271e+00 -3.52052e-01
4
# CELL(abcABC): 1000.00000  1000.00000  1000.00000    90.00000    90.00000    90.00000  Step:          39  Bead:       0 positions{angstrom}  cell{angstrom}
       O -3.14672e+00  1.03874e+00  3.42888e-01
       H -3.35988e+00  8.16442e-01  1.29310e+00
       H -2.34365e+00  1.55430e+00  2.92910e-01
       H -3.73328e+00  1.21167e+00 -3.43156e-01
4
# CELL(abcABC): 1000.00000  1000.00000  1000.00000    90.00000    90.00000    90.00000  Step:          40  Bead:       0 positions{angstrom}  cell{angstrom}
       O -3.14637e+00  1.03772e+00  3.42740e-01
       H -3.36295e+00  8.17591e-01  1.28973e+00
       H -2.33440e+00  1.55999e+00  2.92109e-01
       H -3.74494e+00  1.22113e+00 -3.36642e-01
4
# CELL(abcABC): 1000.00000  1000.00000  1000.00000    90.00000    90.00000    90.00000  Step:          41  Bead:       0 positions{angstrom}  cell{angstrom}
       O -3.14577e+00  1.03669e+00  3.42986e-01
       H -3.36638e+00  8.20143e-01  1.28094e+00
       H -2.32535e+00  1.56488e+00  2.91713e-01
       H -3.76016e+00  1.22998e+00 -3.31362e-01
4
# CELL(abcABC): 1000.00000  1000.00000  1000.00000    90.00000    90.00000    90.00000  Step:          42  Bead:       0 positions{angstrom}  cell{angstrom}
       O -3.14500e+00  1.03589e+00  3.43616e-01
       H -3.36842e+00  8.21330e-01  1.26775e+00
       H -2.31786e+00  1.56796e+00  2.91911e-01
       H -3.77779e+00  1.23846e+00 -3.28353e-01
4
# CELL(abcABC): 1000.00000  1000.00000  1000.00000    90.00000    90.00000    90.00000  Step:          43  Bead:       0 positions{angstrom}  cell{angstrom}
       O -3.14396e+00  1.03518e+00  3.44433e-01
       H -3.37094e+00  8.23501e-01  1.25158e+00
       H -2.31275e+00  1.57004e+00  2.92680e-01
       H -3.79699e+00  1.24541e+00 -3.25938e-01
4
# CELL(abcABC): 1000.00000  1000.00000  1000.00000    90.00000    90.00000    90.00000  Step:          44  Bead:       0 positions{angstrom}  cell{angstrom}
       O -3.14264e+00  1.03474e+00  3.45242e-01
       H -3.37371e+00  8.24739e-01  1.23413e+00
       H -2.31051e+00  1.56912e+00  2.93399e-01
       H -3.81731e+00  1.25217e+00 -3.22048e-01
4
# CELL(abcABC): 1000.00000  1000.00000  1000.00000    90.00000    90.00000    90.00000  Step:          45  Bead:       0 positions{angstrom}  cell{angstrom}
       O -3.14103e+00  1.03459e+00  3.45911e-01
       H -3.37785e+00  8.25345e-01  1.21761e+00
       H -2.31058e+00  1.56496e+00  2.93773e-01
       H -3.83872e+00  1.25806e+00 -3.16510e-01
4
# CELL(abcABC): 1000.00000  1000.00000  1000.00000    90.00000    90.00000    90.00000  Step:          46  Bead:       0 positions{angstrom}  cell{angstrom}
       O -3.13931e+00  1.03477e+00  3.46233e-01
       H -3.38318e+00  8.25311e-01  1.20448e+00
       H -2.31344e+00  1.55757e+00  2.94139e-01
       H -3.85776e+00  1.26264e+00 -3.08865e-01
4
# CELL(abcABC): 1000.00000  1000.00000  1000.00000    90.00000    90.00000    90.00000  Step:          47  Bead:       0 positions{angstrom}  cell{angstrom}
       O -3.13751e+00  1.03513e+00  3.46173e-01
       H -3.38979e+00  8.23360e-01  1.19718e+00
       H -2.31810e+00  1.54855e+00  2.94050e-01
       H -3.87509e+00  1.26781e+00 -3.00520e-01
4
# CELL(abcABC): 1000.00000  1000.00000  1000.00000    90.00000    90.00000    90.00000  Step:          48  Bead:       0 positions{angstrom}  cell{angstrom}
       O -3.13574e+00  1.03585e+00  3.45545e-01
       H -3.39714e+00  8.18569e-01  1.19641e+00
       H -2.32367e+00  1.53897e+00  2.93553e-01
       H -3.89029e+00  1.27085e+00 -2.89294e-01
4
# CELL(abcABC): 1000.00000  1000.00000  1000.00000    90.00000    90.00000    90.00000  Step:          49  Bead:       0 positions{angstrom}  cell{angstrom}
       O -3.13419e+00  1.03676e+00  3.44291e-01
       H -3.40520e+00  8.11624e-01  1.20184e+00
       H -2.32770e+00  1.52881e+00  2.93395e-01
       H -3.90272e+00  1.27353e+00 -2.74657e-01
4
# CELL(abcABC): 1000.00000  1000.00000  1000.00000    90.00000    90.00000    90.00000  Step:          50  Bead:       0 positions{angstrom}  cell{angstrom}
       O -3.13280e+00  1.03784e+00  3.42750e-01
       H -3.41361e+00  8.03526e-01  1.21089e+00
       H -2.33192e+00  1.51846e+00  2.93414e-01
       H -3.91222e+00  1.27478e+00 -2.59263e-01
4
# CELL(abcABC): 1000.00000  1000.00000  1000.00000    90.00000    90.00000    90.00000  Step:          51  Bead:       0 positions{angstrom}  cell{angstrom}
       O -3.13188e+00  1.03892e+00  3.41002e-01
       H -3.42156e+00  7.94301e-01  1.22124e+00
       H -2.33361e+00  1.50988e+00  2.93230e-01
       H -3.91721e+00  1.27548e+00 -2.41688e-01
4
# CELL(abcABC): 1000.00000  1000.00000  1000.00000    90.00000    90.00000    90.00000  Step:          52  Bead:       0 positions{angstrom}  cell{angstrom}
       O -3.13149e+00  1.04000e+00  3.39316e-01
       H -3.42827e+00  7.84721e-01  1.23126e+00
       H -2.33184e+00  1.50284e+00  2.91728e-01
       H -3.91837e+00  1.27485e+00 -2.23439e-01
4
# CELL(abcABC): 1000.00000  1000.00000  1000.00000    90.00000    90.00000    90.00000  Step:          53  Bead:       0 positions{angstrom}  cell{angstrom}
       O -3.13172e+00  1.04091e+00  3.37703e-01
       H -3.43208e+00  7.76057e-01  1.23826e+00
       H -2.32631e+00  1.49964e+00  2.90606e-01
       H -3.91642e+00  1.27232e+00 -2.03720e-01
4
# CELL(abcABC): 1000.00000  1000.00000  1000.00000    90.00000    90.00000    90.00000  Step:          54  Bead:       0 positions{angstrom}  cell{angstrom}
       O -3.13248e+00  1.04172e+00  3.36052e-01
       H -3.43318e+00  7.67273e-01  1.24313e+00
       H -2.31763e+00  1.49939e+00  2.90012e-01
       H -3.91202e+00  1.26847e+00 -1.81778e-01
4
# CELL(abcABC): 1000.00000  1000.00000  1000.00000    90.00000    90.00000    90.00000  Step:          55  Bead:       0 positions{angstrom}  cell{angstrom}
       O -3.13370e+00  1.04236e+00  3.34691e-01
       H -3.43177e+00  7.59673e-01  1.24482e+00
       H -2.30639e+00  1.50096e+00  2.89884e-01
       H -3.90523e+00  1.26435e+00 -1.61747e-01
4
# CELL(abcABC): 1000.00000  1000.00000  1000.00000    90.00000    90.00000    90.00000  Step:          56  Bead:       0 positions{angstrom}  cell{angstrom}
       O -3.13525e+00  1.04279e+00  3.33737e-01
       H -3.42496e+00  7.53521e-01  1.24288e+00
       H -2.29442e+00  1.50319e+00  2.88498e-01
       H -3.89950e+00  1.26153e+00 -1.43262e-01
4
# CELL(abcABC): 1000.00000  1000.00000  1000.00000    90.00000    90.00000    90.00000  Step:          57  Bead:       0 positions{angstrom}  cell{angstrom}
       O -3.13684e+00  1.04301e+00  3.33191e-01
       H -3.41339e+00  7.49108e-01  1.23743e+00
       H -2.28416e+00  1.50505e+00  2.87970e-01
       H -3.89601e+00  1.26053e+00 -1.28611e-01
4
# CELL(abcABC): 1000.00000  1000.00000  1000.00000    90.00000    90.00000    90.00000  Step:          58  Bead:       0 positions{angstrom}  cell{angstrom}
       O -3.13840e+00  1.04315e+00  3.33113e-01
       H -3.39778e+00  7.44894e-01  1.22848e+00
       H -2.27543e+00  1.50631e+00  2.87967e-01
       H -3.89561e+00  1.26133e+00 -1.18432e-01
4
# CELL(abcABC): 1000.00000  1000.00000  1000.00000    90.00000    90.00000    90.00000  Step:          59  Bead:       0 positions{angstrom}  cell{angstrom}
       O -3.13978e+00  1.04315e+00  3.33343e-01
       H -3.37874e+00  7.41352e-01  1.21747e+00
       H -2.26922e+00  1.50694e+00  2.89462e-01
       H -3.89905e+00  1.26421e+00 -1.12578e-01
4
# CELL(abcABC): 1000.00000  1000.00000  1000.00000    90.00000    90.00000    90.00000  Step:          60  Bead:       0 positions{angstrom}  cell{angstrom}
       O -3.14087e+00  1.04317e+00  3.33950e-01
       H -3.35885e+00  7.37444e-01  1.20595e+00
       H -2.26566e+00  1.50547e+00  2.89253e-01
       H -3.90511e+00  1.26926e+00 -1.10476e-01
4
# CELL(abcABC): 1000.00000  1000.00000  1000.00000    90.00000    90.00000    90.00000  Step:          61  Bead:       0 positions{angstrom}  cell{angstrom}
       O -3.14172e+00  1.04327e+00  3.34783e-01
       H -3.33684e+00  7.32357e-01  1.19536e+00
       H -2.26453e+00  1.50208e+00  2.87553e-01
       H -3.91474e+00  1.27618e+00 -1.11414e-01
4
# CELL(abcABC): 1000.00000  1000.00000  1000.00000    90.00000    90.00000    90.00000  Step:          62  Bead:       0 positions{angstrom}  cell{angstrom}
       O -3.14218e+00  1.04356e+00  3.35794e-01
       H -3.31504e+00  7.25095e-01  1.18731e+00
       H -2.26826e+00  1.49645e+00  2.85033e-01
       H -3.92554e+00  1.28442e+00 -1.16886e-01
4
# CELL(abcABC): 1000.00000  1000.00000  1000.00000    90.00000    90.00000    90.00000  Step:          63  Bead:       0 positions{angstrom}  cell{angstrom}
       O -3.14234e+00  1.04391e+00  3.36556e-01
       H -3.29290e+00  7.16895e-01  1.18413e+00
       H -2.27551e+00  1.48853e+00  2.81891e-01
       H -3.93796e+00  1.29500e+00 -1.22652e-01
4
# CELL(abcABC): 1000.00000  1000.00000  1000.00000    90.00000    90.00000    90.00000  Step:          64  Bead:       0 positions{angstrom}  cell{angstrom}
       O -3.14239e+00  1.04443e+00  3.37090e-01
       H -3.26988e+00  7.06823e-01  1.18694e+00
       H -2.28467e+00  1.47936e+00  2.78150e-01
       H -3.95092e+00  1.30600e+00 -1.30200e-01
4
# CELL(abcABC): 1000.00000  1000.00000  1000.00000    90.00000    90.00000    90.00000  Step:          65  Bead:       0 positions{angstrom}  cell{angstrom}
       O -3.14247e+00  1.04504e+00  3.37440e-01
       H -3.24818e+00  6.95398e-01  1.19322e+00
       H -2.29409e+00  1.47112e+00  2.73398e-01
       H -3.96201e+00  1.31596e+00 -1.37276e-01
4
# CELL(abcABC): 1000.00000  1000.00000  1000.00000    90.00000    90.00000    90.00000  Step:          66  Bead:       0 positions{angstrom}  cell{angstrom}
       O -3.14271e+00  1.04565e+00  3.37526e-01
       H -3.22727e+00  6.85089e-01  1.20357e+00
       H -2.30288e+00  1.46189e+00  2.67890e-01
       H -3.97028e+00  1.32587e+00 -1.43498e-01
4
# CELL(abcABC): 1000.00000  1000.00000  1000.00000    90.00000    90.00000    90.00000  Step:          67  Bead:       0 positions{angstrom}  cell{angstrom}
       O -3.14316e+00  1.04635e+00  3.37520e-01
       H -3.20690e+00  6.73261e-01  1.21484e+00
       H -2.30916e+00  1.45408e+00  2.61586e-01
       H -3.97725e+00  1.33437e+00 -1.48363e-01
4
# CELL(abcABC): 1000.00000  1000.00000  1000.00000    90.00000    90.00000    90.00000  Step:          68  Bead:       0 positions{angstrom}  cell{angstrom}
       O -3.14400e+00  1.04695e+00  3.37668e-01
       H -3.18685e+00  6.61262e-01  1.22576e+00
       H -2.31194e+00  1.44833e+00  2.52151e-01
       H -3.98122e+00  1.34251e+00 -1.52194e-01
4
# CELL(abcABC): 1000.00000  1000.00000  1000.00000    90.00000    90.00000    90.00000  Step:          69  Bead:       0 positions{angstrom}  cell{angstrom}
       O -3.14516e+00  1.04757e+00  3.37736e-01
       H -3.16825e+00  6.48470e-01  1.23663e+00
       H -2.31172e+00  1.44497e+00  2.41923e-01
       H -3.98154e+00  1.34882e+00 -1.53930e-01
4
# CELL(abcABC): 1000.00000  1000.00000  1000.00000    90.00000    90.00000    90.00000  Step:          70  Bead:       0 positions{angstrom}  cell{angstrom}
       O -3.14685e+00  1.04792e+00  3.38000e-01
       H -3.15054e+00  6.37592e-01  1.24337e+00
       H -2.30771e+00  1.44470e+00  2.29665e-01
       H -3.97648e+00  1.35441e+00 -1.52599e-01
4
# CELL(abcABC): 1000.00000  1000.00000  1000.00000    90.00000    90.00000    90.00000  Step:          71  Bead:       0 positions{angstrom}  cell{angstrom}
       O -3.14876e+00  1.04821e+00  3.38578e-01
       H -3.13500e+00  6.27301e-01  1.24458e+00
       H -2.30150e+00  1.44583e+00  2.15311e-01
       H -3.96793e+00  1.35895e+00 -1.48627e-01
4
# CELL(abcABC): 1000.00000  1000.00000  1000.00000    90.00000    90.00000    90.00000  Step:          72  Bead:       0 positions{angstrom}  cell{angstrom}
       O -3.15084e+00  1.04829e+00  3.39374e-01
       H -3.12080e+00  6.19112e-01  1.24152e+00
       H -2.29376e+00  1.44841e+00  2.00294e-01
       H -3.95677e+00  1.36340e+00 -1.43184e-01
4
# CELL(abcABC): 1000.00000  1000.00000  1000.00000    90.00000    90.00000    90.00000  Step:          73  Bead:       0 positions{angstrom}  cell{angstrom}
       O -3.15286e+00  1.04831e+00  3.40500e-01
       H -3.10860e+00  6.12577e-01  1.23383e+00
       H -2.28629e+00  1.45192e+00  1.84251e-01
       H -3.94438e+00  1.36611e+00 -1.37311e-01
4
# CELL(abcABC): 1000.00000  1000.00000  1000.00000    90.00000    90.00000    90.00000  Step:          74  Bead:       0 positions{angstrom}  cell{angstrom}
       O -3.15472e+00  1.04823e+00  3.42010e-01
       H -3.09809e+00  6.07703e-01  1.22086e+00
       H -2.28059e+00  1.45527e+00  1.66408e-01
       H -3.93104e+00  1.36888e+00 -1.30483e-01
4
# CELL(abcABC): 1000.00000  1000.00000  1000.00000    90.00000    90.00000    90.00000  Step:          75  Bead:       0 positions{angstrom}  cell{angstrom}
       O -3.15608e+00  1.04820e+00  3.43685e-01
       H -3.09015e+00  6.02940e-01  1.20443e+00
       H -2.27850e+00  1.45719e+00  1.49145e-01
       H -3.91951e+00  1.37222e+00 -1.23360e-01
4
# CELL(abcABC): 1000.00000  1000.00000  1000.00000    90.00000    90.00000    90.00000  Step:          76  Bead:       0 positions{angstrom}  cell{angstrom}
       O -3.15707e+00  1.04811e+00  3.45305e-01
       H -3.08339e+00  5.98830e-01  1.18764e+00
       H -2.28033e+00  1.45786e+00  1.32209e-01
       H -3.90881e+00  1.37710e+00 -1.15359e-01
4
# CELL(abcABC): 1000.00000  1000.00000  1000.00000    90.00000    90.00000    90.00000  Step:          77  Bead:       0 positions{angstrom}  cell{angstrom}
       O -3.15744e+00  1.04810e+00  3.46857e-01
       H -3.07861e+00  5.95242e-01  1.17105e+00
       H -2.28670e+00  1.45728e+00  1.16474e-01
       H -3.90138e+00  1.38144e+00 -1.07682e-01
4
# CELL(abcABC): 1000.00000  1000.00000  1000.00000    90.00000    90.00000    90.00000  Step:          78  Bead:       0 positions{angstrom}  cell{angstrom}
       O -3.15719e+00  1.04826e+00  3.48435e-01
       H -3.07672e+00  5.89708e-01  1.15547e+00
       H -2.29605e+00  1.45571e+00  1.01309e-01
       H -3.89779e+00  1.38598e+00 -1.01981e-01
4
# CELL(abcABC): 1000.00000  1000.00000  1000.00000    90.00000    90.00000    90.00000  Step:          79  Bead:       0 positions{angstrom}  cell{angstrom}
       O -3.15649e+00  1.04873e+00  3.49739e-01
       H -3.07695e+00  5.82562e-01  1.14468e+00
       H -2.30725e+00  1.45174e+00  8.69092e-02
       H -3.89757e+00  1.38958e+00 -9.74832e-02
4
# CELL(abcABC): 1000.00000  1000.00000  1000.00000    90.00000    90.00000    90.00000  Step:          80  Bead:       0 positions{angstrom}  cell{angstrom}
       O -3.15543e+00  1.04946e+00  3.50630e-01
       H -3.07803e+00  5.73060e-01  1.13834e+00
       H -2.32012e+00  1.44620e+00  7.45528e-02
       H -3.90041e+00  1.39303e+00 -9.29271e-02
4
# CELL(abcABC): 1000.00000  1000.00000  1000.00000    90.00000    90.00000    90.00000  Step:          81  Bead:       0 positions{angstrom}  cell{angstrom}
       O -3.15410e+00  1.05028e+00  3.51270e-01
       H -3.07805e+00  5.61751e-01  1.13592e+00
       H -2.33428e+00  1.44166e+00  6.32411e-02
       H -3.90731e+00  1.39587e+00 -8.93576e-02
4
# CELL(abcABC): 1000.00000  1000.00000  1000.00000    90.00000    90.00000    90.00000  Step:          82  Bead:       0 positions{angstrom}  cell{angstrom}
       O -3.15258e+00  1.05142e+00  3.51535e-01
       H -3.07823e+00  5.47558e-01  1.13823e+00
       H -2.34728e+00  1.43566e+00  5.24401e-02
       H -3.91831e+00  1.39799e+00 -8.50750e-02
4
# CELL(abcABC): 1000.00000  1000.00000  1000.00000    90.00000    90.00000    90.00000  Step:          83  Bead:       0 positions{angstrom}  cell{angstrom}
       O -3.15105e+00  1.05260e+00  3.51608e-01
       H -3.07909e+00  5.32365e-01  1.14357e+00
       H -2.35793e+00  1.43044e+00  4.18072e-02
       H -3.93106e+00  1.39971e+00 -8.09464e-02
4
# CELL(abcABC): 1000.00000  1000.00000  1000.00000    90.00000    90.00000    90.00000  Step:          84  Bead:       0 positions{angstrom}  cell{angstrom}
       O -3.14960e+00  1.05379e+00  3.51627e-01
       H -3.07950e+00  5.16121e-01  1.14883e+00
       H -2.36590e+00  1.42636e+00  3.08107e-02
       H -3.94563e+00  1.40104e+00 -7.55043e-02
4
# CELL(abcABC): 1000.00000  1000.00000  1000.00000    90.00000    90.00000    90.00000  Step:          85  Bead:       0 positions{angstrom}  cell{angstrom}