4
# CELL(abcABC): 1000.00000  1000.00000  1000.00000    90.00000    90.00000    90.00000  Step:           0  Bead:       0 positions{angstrom}  cell{angstrom}
       O -3.14931e+00  1.07103e+00  3.55663e-01
       H -2.33173e+00  7.57679e-01 -9.41368e-02
       H -3.11869e+00  9.84169e-01  1.30243e+00
       H -3.94528e+00  1.32806e+00 -1.68223e-01
4
# CELL(abcABC): 1000.00000  1000.00000  1000.00000    90.00000    90.00000    90.00000  Step:           1  Bead:       0 positions{angstrom}  cell{angstrom}
       O -3.14760e+00  1.07131e+00  3.54992e-01
       H -2.34216e+00  7.50856e-01 -8.96791e-02
       H -3.11863e+00  9.83477e-01  1.30481e+00
       H -3.96209e+00  1.33117e+00 -1.64417e-01
4
# CELL(abcABC): 1000.00000  1000.00000  1000.00000    90.00000    90.00000    90.00000  Step:           2  Bead:       0 positions{angstrom}  cell{angstrom}
       O -3.14602e+00  1.07159e+00  3.54104e-01
       H -2.35332e+00  7.44601e-01 -8.48844e-02
       H -3.11718e+00  9.82755e-01  1.30924e+00
       H -3.97735e+00  1.33367e+00 -1.59533e-01
4
# CELL(abcABC): 1000.00000  1000.00000  1000.00000    90.00000    90.00000    90.00000  Step:           3  Bead:       0 positions{angstrom}  cell{angstrom}
       O -3.14457e+00  1.07198e+00  3.53005e-01
       H -2.36344e+00  7.37037e-01 -7.91562e-02
       H -3.11622e+00  9.83239e-01  1.31567e+00
       H -3.99121e+00  1.33461e+00 -1.54258e-01
4
# CELL(abcABC): 1000.00000  1000.00000  1000.00000    90.00000    90.00000    90.00000  Step:           4  Bead:       0 positions{angstrom}  cell{angstrom}
       O -3.14340e+00  1.07253e+00  3.51952e-01
       H -2.37226e+00  7.27597e-01 -7.60260e-02
       H -3.11489e+00  9.84666e-01  1.32213e+00
       H -4.00228e+00  1.33384e+00 -1.47126e-01
4
# CELL(abcABC): 1000.00000  1000.00000  1000.00000    90.00000    90.00000    90.00000  Step:           5  Bead:       0 positions{angstrom}  cell{angstrom}
       O -3.14246e+00  1.07312e+00  3.50994e-01
       H -2.37966e+00  7.17043e-01 -7.51452e-02
       H -3.11449e+00  9.87694e-01  1.32923e+00
       H -4.01030e+00  1.33201e+00 -1.39896e-01
4
# CELL(abcABC): 1000.00000  1000.00000  1000.00000    90.00000    90.00000    90.00000  Step:           6  Bead:       0 positions{angstrom}  cell{angstrom}
       O -3.14175e+00  1.07395e+00  3.50206e-01
       H -2.38443e+00  7.05304e-01 -7.74485e-02
       H -3.11501e+00  9.89674e-01  1.33410e+00
       H -4.01620e+00  1.32852e+00 -1.29968e-01
4
# CELL(abcABC): 1000.00000  1000.00000  1000.00000    90.00000    90.00000    90.00000  Step:           7  Bead:       0 positions{angstrom}  cell{angstrom}
       O -3.14144e+00  1.07486e+00  3.49403e-01
       H -2.38537e+00  6.92079e-01 -8.06401e-02
       H -3.11598e+00  9.91813e-01  1.33799e+00
       H -4.01931e+00  1.32521e+00 -1.17911e-01
4
# CELL(abcABC): 1000.00000  1000.00000  1000.00000    90.00000    90.00000    90.00000  Step:           8  Bead:       0 positions{angstrom}  cell{angstrom}
       O -3.14150e+00  1.07593e+00  3.48846e-01
       H -2.38361e+00  6.77621e-01 -8.62944e-02
       H -3.11617e+00  9.93467e-01  1.33903e+00
       H -4.01996e+00  1.32109e+00 -1.04454e-01
4
# CELL(abcABC): 1000.00000  1000.00000  1000.00000    90.00000    90.00000    90.00000  Step:           9  Bead:       0 positions{angstrom}  cell{angstrom}
       O -3.14180e+00  1.07719e+00  3.48337e-01
       H -2.38113e+00  6.61578e-01 -9.20101e-02
       H -3.11546e+00  9.95574e-01  1.33835e+00
       H -4.01836e+00  1.31499e+00 -8.99719e-02
4
# CELL(abcABC): 1000.00000  1000.00000  1000.00000    90.00000    90.00000    90.00000  Step:          10  Bead:       0 positions{angstrom}  cell{angstrom}
       O -3.14219e+00  1.07845e+00  3.48100e-01
       H -2.37893e+00  6.45363e-01 -9.90172e-02
       H -3.11466e+00  9.98552e-01  1.33470e+00
       H -4.01505e+00  1.30829e+00 -7.55604e-02
4
# CELL(abcABC): 1000.00000  1000.00000  1000.00000    90.00000    90.00000    90.00000  Step:          11  Bead:       0 positions{angstrom}  cell{angstrom}
       O -3.14257e+00  1.07972e+00  3.48117e-01
       H -2.37794e+00  6.30377e-01 -1.07206e-01
       H -3.11517e+00  1.00131e+00  1.32879e+00
       H -4.00960e+00  1.30022e+00 -6.17367e-02
4
# CELL(abcABC): 1000.00000  1000.00000  1000.00000    90.00000    90.00000    90.00000  Step:          12  Bead:       0 positions{angstrom}  cell{angstrom}
       O -3.14295e+00  1.08103e+00  3.48273e-01
       H -2.37796e+00  6.16375e-01 -1.14989e-01
       H -3.11573e+00  1.00279e+00  1.32072e+00
       H -4.00289e+00  1.29204e+00 -4.83545e-02
4
# CELL(abcABC): 1000.00000  1000.00000  1000.00000    90.00000    90.00000    90.00000  Step:          13  Bead:       0 positions{angstrom}  cell{angstrom}
       O -3.14318e+00  1.08227e+00  3.48417e-01
       H -2.38096e+00  6.04707e-01 -1.21244e-01
       H -3.11493e+00  1.00391e+00  1.31242e+00
       H -3.99705e+00  1.28280e+00 -3.60783e-02
4
# CELL(abcABC): 1000.00000  1000.00000  1000.00000    90.00000    90.00000    90.00000  Step:          14  Bead:       0 positions{angstrom}  cell{angstrom}
       O -3.14317e+00  1.08340e+00  3.48472e-01
       H -2.38603e+00  5.94912e-01 -1.25400e-01
       H -3.11347e+00  1.00532e+00  1.30489e+00
       H -3.99358e+00  1.27339e+00 -2.52719e-02
4
# CELL(abcABC): 1000.00000  1000.00000  1000.00000    90.00000    90.00000    90.00000  Step:          15  Bead:       0 positions{angstrom}  cell{angstrom}
       O -3.14273e+00  1.08428e+00  3.48205e-01
       H -2.39673e+00  5.87003e-01 -1.25474e-01
       H -3.11244e+00  1.00688e+00  1.29933e+00
       H -3.99090e+00  1.26578e+00 -1.54111e-02
4
# CELL(abcABC): 1000.00000  1000.00000  1000.00000    90.00000    90.00000    90.00000  Step:          16  Bead:       0 positions{angstrom}  cell{angstrom}
       O -3.14194e+00  1.08494e+00  3.47809e-01
       H -2.40980e+00  5.81033e-01 -1.24047e-01
       H -3.11138e+00  1.00914e+00  1.29634e+00
       H -3.99143e+00  1.25886e+00 -7.54906e-03
4
# CELL(abcABC): 1000.00000  1000.00000  1000.00000    90.00000    90.00000    90.00000  Step:          17  Bead:       0 positions{angstrom}  cell{angstrom}
       O -3.14068e+00  1.08548e+00  3.47278e-01
       H -2.42503e+00  5.77535e-01 -1.20840e-01
       H -3.11114e+00  1.01175e+00  1.29524e+00
       H -3.99651e+00  1.25127e+00 -1.23954e-03
4
# CELL(abcABC): 1000.00000  1000.00000  1000.00000    90.00000    90.00000    90.00000  Step:          18  Bead:       0 positions{angstrom}  cell{angstrom}
       O -3.13905e+00  1.08583e+00  3.46638e-01
       H -2.44334e+00  5.76321e-01 -1.16403e-01
       H -3.10956e+00  1.01405e+00  1.29698e+00
       H -4.00558e+00  1.24459e+00  2.74828e-03
4
# CELL(abcABC): 1000.00000  1000.00000  1000.00000    90.00000    90.00000    90.00000  Step:          19  Bead:       0 positions{angstrom}  cell{angstrom}
       O -3.13732e+00  1.08620e+00  3.45929e-01
       H -2.46201e+00  5.75551e-01 -1.11261e-01
       H -3.10848e+00  1.01550e+00  1.30059e+00
       H -4.01553e+00  1.23805e+00  5.25186e-03
4
# CELL(abcABC): 1000.00000  1000.00000  1000.00000    90.00000    90.00000    90.00000  Step:          20  Bead:       0 positions{angstrom}  cell{angstrom}
       O -3.13553e+00  1.08667e+00  3.45308e-01
       H -2.47989e+00  5.74706e-01 -1.08250e-01
       H -3.10801e+00  1.01677e+00  1.30637e+00
       H -4.02654e+00  1.23020e+00  6.31724e-03
4
# CELL(abcABC): 1000.00000  1000.00000  1000.00000    90.00000    90.00000    90.00000  Step:          21  Bead:       0 positions{angstrom}  cell{angstrom}
       O -3.13392e+00  1.08727e+00  3.44890e-01
       H -2.49607e+00  5.71699e-01 -1.08125e-01
       H -3.10553e+00  1.01835e+00  1.31414e+00
       H -4.03836e+00  1.22205e+00  5.06054e-03
4
# CELL(abcABC): 1000.00000  1000.00000  1000.00000    90.00000    90.00000    90.00000  Step:          22  Bead:       0 positions{angstrom}  cell{angstrom}
       O -3.13263e+00  1.08800e+00  3.44791e-01
       H -2.51015e+00  5.65236e-01 -1.09499e-01
       H -3.10037e+00  1.01998e+00  1.32029e+00
       H -4.04989e+00  1.21530e+00  1.84503e-03
4
# CELL(abcABC): 1000.00000  1000.00000  1000.00000    90.00000    90.00000    90.00000  Step:          23  Bead:       0 positions{angstrom}  cell{angstrom}
       O -3.13174e+00  1.08896e+00  3.45158e-01
       H -2.52029e+00  5.56174e-01 -1.14277e-01
       H -3.09363e+00  1.02192e+00  1.32603e+00
       H -4.06067e+00  1.20720e+00 -4.92801e-03
4
# CELL(abcABC): 1000.00000  1000.00000  1000.00000    90.00000    90.00000    90.00000  Step:          24  Bead:       0 positions{angstrom}  cell{angstrom}
       O -3.13129e+00  1.09006e+00  3.45812e-01
       H -2.52614e+00  5.43049e-01 -1.21842e-01
       H -3.08577e+00  1.02477e+00  1.33057e+00
       H -4.06988e+00  1.20006e+00 -1.22934e-02
4
# CELL(abcABC): 1000.00000  1000.00000  1000.00000    90.00000    90.00000    90.00000  Step:          25  Bead:       0 positions{angstrom}  cell{angstrom}
       O -3.13119e+00  1.09143e+00  3.46608e-01
       H -2.52917e+00  5.26594e-01 -1.30592e-01
       H -3.07757e+00  1.02682e+00  1.33342e+00
       H -4.07662e+00  1.19273e+00 -1.90199e-02
4
# CELL(abcABC): 1000.00000  1000.00000  1000.00000    90.00000    90.00000    90.00000  Step:          26  Bead:       0 positions{angstrom}  cell{angstrom}
       O -3.13142e+00  1.09299e+00  3.47527e-01
       H -2.53048e+00  5.08272e-01 -1.40991e-01
       H -3.06846e+00  1.02839e+00  1.33400e+00
       H -4.08078e+00  1.18460e+00 -2.37960e-02
4
# CELL(abcABC): 1000.00000  1000.00000  1000.00000    90.00000    90.00000    90.00000  Step:          27  Bead:       0 positions{angstrom}  cell{angstrom}
       O -3.13201e+00  1.09457e+00  3.48524e-01
       H -2.53158e+00  4.91034e-01 -1.51824e-01
       H -3.05883e+00  1.02889e+00  1.33219e+00
       H -4.07995e+00  1.17626e+00 -2.69766e-02
4
# CELL(abcABC): 1000.00000  1000.00000  1000.00000    90.00000    90.00000    90.00000  Step:          28  Bead:       0 positions{angstrom}  cell{angstrom}
       O -3.13272e+00  1.09610e+00  3.49412e-01
       H -2.53445e+00  4.73655e-01 -1.61530e-01
       H -3.04822e+00  1.02927e+00  1.32887e+00
       H -4.07637e+00  1.16908e+00 -2.80429e-02
4
# CELL(abcABC): 1000.00000  1000.00000  1000.00000    90.00000    90.00000    90.00000  Step:          29  Bead:       0 positions{angstrom}  cell{angstrom}
       O -3.13356e+00  1.09744e+00  3.50182e-01
       H -2.53821e+00  4.59036e-01 -1.70536e-01
       H -3.03832e+00  1.02937e+00  1.32419e+00
       H -4.06921e+00  1.16231e+00 -2.65723e-02
4
# CELL(abcABC): 1000.00000  1000.00000  1000.00000    90.00000    90.00000    90.00000  Step:          30  Bead:       0 positions{angstrom}  cell{angstrom}
       O -3.13442e+00  1.09846e+00  3.50709e-01
       H -2.54377e+00  4.48690e-01 -1.76025e-01
       H -3.02854e+00  1.02921e+00  1.31909e+00
       H -4.05978e+00  1.15662e+00 -2.43610e-02
4
# CELL(abcABC): 1000.00000  1000.00000  1000.00000    90.00000    90.00000    90.00000  Step:          31  Bead:       0 positions{angstrom}  cell{angstrom}
       O -3.13536e+00  1.09910e+00  3.51044e-01
       H -2.55020e+00  4.42251e-01 -1.78229e-01
       H -3.01817e+00  1.03000e+00  1.31306e+00
       H -4.04872e+00  1.15208e+00 -2.14334e-02
4
# CELL(abcABC): 1000.00000  1000.00000  1000.00000    90.00000    90.00000    90.00000  Step:          32  Bead:       0 positions{angstrom}  cell{angstrom}
       O -3.13617e+00  1.09955e+00  3.50918e-01
       H -2.56003e+00  4.37854e-01 -1.76632e-01
       H -3.00737e+00  1.03195e+00  1.30855e+00
       H -4.03690e+00  1.14747e+00 -1.65215e-02
4
# CELL(abcABC): 1000.00000  1000.00000  1000.00000    90.00000    90.00000    90.00000  Step:          33  Bead:       0 positions{angstrom}  cell{angstrom}
       O -3.13678e+00  1.09983e+00  3.50411e-01
       H -2.57269e+00  4.36505e-01 -1.70791e-01
       H -2.99642e+00  1.03289e+00  1.30523e+00
       H -4.02549e+00  1.14336e+00 -1.10000e-02
4
# CELL(abcABC): 1000.00000  1000.00000  1000.00000    90.00000    90.00000    90.00000  Step:          34  Bead:       0 positions{angstrom}  cell{angstrom}
       O -3.13702e+00  1.09989e+00  3.49779e-01
       H -2.58672e+00  4.38164e-01 -1.62613e-01
       H -2.98764e+00  1.03339e+00  1.30310e+00
       H -4.01643e+00  1.14021e+00 -7.02738e-03
4
# CELL(abcABC): 1000.00000  1000.00000  1000.00000    90.00000    90.00000    90.00000  Step:          35  Bead:       0 positions{angstrom}  cell{angstrom}
       O -3.13703e+00  1.09971e+00  3.49001e-01
       H -2.60011e+00  4.42085e-01 -1.53457e-01
       H -2.98057e+00  1.03496e+00  1.30254e+00
       H -4.00994e+00  1.13762e+00 -3.26074e-03
4
# CELL(abcABC): 1000.00000  1000.00000  1000.00000    90.00000    90.00000    90.00000  Step:          36  Bead:       0 positions{angstrom}  cell{angstrom}
       O -3.13681e+00  1.09929e+00  3.48183e-01
       H -2.61340e+00  4.47289e-01 -1.44044e-01
       H -2.97395e+00  1.03805e+00  1.30184e+00
       H -4.00676e+00  1.13600e+00  9.97193e-04
4
# CELL(abcABC): 1000.00000  1000.00000  1000.00000    90.00000    90.00000    90.00000  Step:          37  Bead:       0 positions{angstrom}  cell{angstrom}
       O -3.13642e+00  1.09885e+00  3.47283e-01
       H -2.62515e+00  4.53297e-01 -1.33162e-01
       H -2.96747e+00  1.04086e+00  1.30122e+00
       H -4.00763e+00  1.13422e+00  5.03720e-03
4
# CELL(abcABC): 1000.00000  1000.00000  1000.00000    90.00000    90.00000    90.00000  Step:          38  Bead:       0 positions{angstrom}  cell{angstrom}
       O -3.13573e+00  1.09841e+00  3.46657e-01
       H -2.63578e+00  4.57592e-01 -1.24954e-01
       H -2.96153e+00  1.04290e+00  1.30070e+00
       H -4.01397e+00  1.13476e+00  7.27805e-03
4
# CELL(abcABC): 1000.00000  1000.00000  1000.00000    90.00000    90.00000    90.00000  Step:          39  Bead:       0 positions{angstrom}  cell{angstrom}
       O -3.13515e+00  1.09820e+00  3.46094e-01
       H -2.64252e+00  4.58441e-01 -1.18774e-01
       H -2.95573e+00  1.04413e+00  1.30136e+00
       H -4.02216e+00  1.13602e+00  9.38318e-03
4
# CELL(abcABC): 1000.00000  1000.00000  1000.00000    90.00000    90.00000    90.00000  Step:          40  Bead:       0 positions{angstrom}  cell{angstrom}
       O -3.13467e+00  1.09810e+00  3.45543e-01
       H -2.64546e+00  4.55715e-01 -1.14826e-01
       H -2.95016e+00  1.04584e+00  1.30372e+00
       H -4.03246e+00  1.13858e+00  1.18071e-02
4
# CELL(abcABC): 1000.00000  1000.00000  1000.00000    90.00000    90.00000    90.00000  Step:          41  Bead:       0 positions{angstrom}  cell{angstrom}
       O -3.13430e+00  1.09815e+00  3.45148e-01
       H -2.64480e+00  4.49746e-01 -1.14694e-01
       H -2.94450e+00  1.04830e+00  1.30613e+00
       H -4.04472e+00  1.14131e+00  1.55459e-02
4
# CELL(abcABC): 1000.00000  1000.00000  1000.00000    90.00000    90.00000    90.00000  Step:          42  Bead:       0 positions{angstrom}  cell{angstrom}
       O -3.13418e+00  1.09849e+00  3.44992e-01
       H -2.63920e+00  4.38379e-01 -1.17971e-01
       H -2.93911e+00  1.05118e+00  1.30829e+00
       H -4.05753e+00  1.14448e+00  1.91320e-02
4
# CELL(abcABC): 1000.00000  1000.00000  1000.00000    90.00000    90.00000    90.00000  Step:          43  Bead:       0 positions{angstrom}  cell{angstrom}
       O -3.13419e+00  1.09885e+00  3.44982e-01
       H -2.63142e+00  4.25568e-01 -1.23767e-01
       H -2.93415e+00  1.05577e+00  1.30980e+00
       H -4.07011e+00  1.14704e+00  2.35802e-02
4
# CELL(abcABC): 1000.00000  1000.00000  1000.00000    90.00000    90.00000    90.00000  Step:          44  Bead:       0 positions{angstrom}  cell{angstrom}
       O -3.13429e+00  1.09924e+00  3.45037e-01
       H -2.62219e+00  4.11338e-01 -1.31270e-01
       H -2.92968e+00  1.06032e+00  1.30976e+00
       H -4.08227e+00  1.15050e+00  3.02564e-02
4
# CELL(abcABC): 1000.00000  1000.00000  1000.00000    90.00000    90.00000    90.00000  Step:          45  Bead:       0 positions{angstrom}  cell{angstrom}
       O -3.13437e+00  1.09957e+00  3.45141e-01
       H -2.61350e+00  3.98070e-01 -1.39415e-01
       H -2.92506e+00  1.06455e+00  1.30780e+00
       H -4.09430e+00  1.15428e+00  3.86966e-02
4
# CELL(abcABC): 1000.00000  1000.00000  1000.00000    90.00000    90.00000    90.00000  Step:          46  Bead:       0 positions{angstrom}  cell{angstrom}
       O -3.13455e+00  1.09976e+00  3.45197e-01
       H -2.60591e+00  3.87587e-01 -1.47041e-01
       H -2.92103e+00  1.06818e+00  1.30440e+00
       H -4.10309e+00  1.15804e+00  4.88412e-02
4
# CELL(abcABC): 1000.00000  1000.00000  1000.00000    90.00000    90.00000    90.00000  Step:          47  Bead:       0 positions{angstrom}  cell{angstrom}
       O -3.13474e+00  1.09963e+00  3.45236e-01
       H -2.60005e+00  3.80004e-01 -1.52772e-01
       H -2.91723e+00  1.07224e+00  1.29941e+00
       H -4.10974e+00  1.16371e+00  5.89370e-02
4
# CELL(abcABC): 1000.00000  1000.00000  1000.00000    90.00000    90.00000    90.00000  Step:          48  Bead:       0 positions{angstrom}  cell{angstrom}
       O -3.13493e+00  1.09932e+00  3.45071e-01
       H -2.59597e+00  3.75189e-01 -1.56112e-01
       H -2.91369e+00  1.07705e+00  1.29340e+00
       H -4.11424e+00  1.16854e+00  7.09109e-02
4
# CELL(abcABC): 1000.00000  1000.00000  1000.00000    90.00000    90.00000    90.00000  Step:          49  Bead:       0 positions{angstrom}  cell{angstrom}
       O -3.13519e+00  1.09875e+00  3.44556e-01
       H -2.59442e+00  3.74027e-01 -1.56545e-01
       H -2.90906e+00  1.08171e+00  1.28773e+00
       H -4.11634e+00  1.17422e+00  8.51945e-02
4
# CELL(abcABC): 1000.00000  1000.00000  1000.00000    90.00000    90.00000    90.00000  Step:          50  Bead:       0 positions{angstrom}  cell{angstrom}
       O -3.13529e+00  1.09796e+00  3.43886e-01
       H -2.59590e+00  3.77110e-01 -1.54951e-01
       H -2.90614e+00  1.08575e+00  1.28279e+00
       H -4.11622e+00  1.17950e+00  9.91724e-02
4
# CELL(abcABC): 1000.00000  1000.00000  1000.00000    90.00000    90.00000    90.00000  Step:          51  Bead:       0 positions{angstrom}  cell{angstrom}
       O -3.13540e+00  1.09693e+00  3.42982e-01
       H -2.60039e+00  3.83592e-01 -1.51715e-01
       H -2.90345e+00  1.09023e+00  1.27869e+00
       H -4.11262e+00  1.18503e+00  1.14382e-01
4
# CELL(abcABC): 1000.00000  1000.00000  1000.00000    90.00000    90.00000    90.00000  Step:          52  Bead:       0 positions{angstrom}  cell{angstrom}
       O -3.13550e+00  1.09578e+00  3.41974e-01
       H -2.60764e+00  3.93055e-01 -1.46827e-01
       H -2.90089e+00  1.09428e+00  1.27465e+00
       H -4.10645e+00  1.18978e+00  1.29540e-01
4
# CELL(abcABC): 1000.00000  1000.00000  1000.00000    90.00000    90.00000    90.00000  Step:          53  Bead:       0 positions{angstrom}  cell{angstrom}
       O -3.13561e+00  1.09445e+00  3.40766e-01
       H -2.61611e+00  4.05310e-01 -1.41873e-01
       H -2.89841e+00  1.09994e+00  1.27264e+00
       H -4.09862e+00  1.19287e+00  1.45768e-01
4
# CELL(abcABC): 1000.00000  1000.00000  1000.00000    90.00000    90.00000    90.00000  Step:          54  Bead:       0 positions{angstrom}  cell{angstrom}
       O -3.13571e+00  1.09315e+00  3.39202e-01
       H -2.62565e+00  4.17726e-01 -1.35680e-01
       H -2.89607e+00  1.10652e+00  1.27277e+00
       H -4.08983e+00  1.19451e+00  1.64273e-01
4
# CELL(abcABC): 1000.00000  1000.00000  1000.00000    90.00000    90.00000    90.00000  Step:          55  Bead:       0 positions{angstrom}  cell{angstrom}
       O -3.13587e+00  1.09190e+00  3.37612e-01
       H -2.63576e+00  4.29848e-01 -1.29546e-01
       H -2.89332e+00  1.11344e+00  1.27460e+00
       H -4.07997e+00  1.19530e+00  1.81549e-01
4
# CELL(abcABC): 1000.00000  1000.00000  1000.00000    90.00000    90.00000    90.00000  Step:          56  Bead:       0 positions{angstrom}  cell{angstrom}
       O -3.13612e+00  1.09076e+00  3.36155e-01
       H -2.64246e+00  4.40127e-01 -1.24769e-01
       H -2.89047e+00  1.12030e+00  1.27581e+00
       H -4.07219e+00  1.19634e+00  1.98693e-01
4
# CELL(abcABC): 1000.00000  1000.00000  1000.00000    90.00000    90.00000    90.00000  Step:          57  Bead:       0 positions{angstrom}  cell{angstrom}
       O -3.13639e+00  1.08980e+00  3.34896e-01
       H -2.64525e+00  4.47429e-01 -1.22422e-01
       H -2.88840e+00  1.12684e+00  1.27802e+00
       H -4.06720e+00  1.19766e+00  2.14117e-01
4
# CELL(abcABC): 1000.00000  1000.00000  1000.00000    90.00000    90.00000    90.00000  Step:          58  Bead:       0 positions{angstrom}  cell{angstrom}
       O -3.13677e+00  1.08918e+00  3.33980e-01
       H -2.64384e+00  4.49471e-01 -1.23823e-01
       H -2.88562e+00  1.13342e+00  1.28039e+00
       H -4.06533e+00  1.19884e+00  2.27688e-01
4
# CELL(abcABC): 1000.00000  1000.00000  1000.00000    90.00000    90.00000    90.00000  Step:          59  Bead:       0 positions{angstrom}  cell{angstrom}
       O -3.13723e+00  1.08883e+00  3.33335e-01
       H -2.63831e+00  4.47052e-01 -1.28713e-01
       H -2.88214e+00  1.14044e+00  1.28344e+00
       H -4.06700e+00  1.19992e+00  2.39761e-01
4
# CELL(abcABC): 1000.00000  1000.00000  1000.00000    90.00000    90.00000    90.00000  Step:          60  Bead:       0 positions{angstrom}  cell{angstrom}
       O -3.13773e+00  1.08879e+00  3.33130e-01
       H -2.63115e+00  4.40440e-01 -1.36521e-01
       H -2.87742e+00  1.14668e+00  1.28352e+00
       H -4.07089e+00  1.20089e+00  2.50743e-01
4
# CELL(abcABC): 1000.00000  1000.00000  1000.00000    90.00000    90.00000    90.00000  Step:          61  Bead:       0 positions{angstrom}  cell{angstrom}
       O -3.13830e+00  1.08900e+00  3.33303e-01
       H -2.62144e+00  4.30761e-01 -1.46621e-01
       H -2.87092e+00  1.15240e+00  1.28072e+00
       H -4.07814e+00  1.20155e+00  2.60896e-01
4
# CELL(abcABC): 1000.00000  1000.00000  1000.00000    90.00000    90.00000    90.00000  Step:          62  Bead:       0 positions{angstrom}  cell{angstrom}
       O -3.13872e+00  1.08941e+00  3.33876e-01
       H -2.61210e+00  4.19330e-01 -1.58012e-01
       H -2.86501e+00  1.15721e+00  1.27590e+00
       H -4.08668e+00  1.20159e+00  2.68005e-01
4
# CELL(abcABC): 1000.00000  1000.00000  1000.00000    90.00000    90.00000    90.00000  Step:          63  Bead:       0 positions{angstrom}  cell{angstrom}
       O -3.13899e+00  1.08975e+00  3.34463e-01
       H -2.60326e+00  4.09558e-01 -1.68588e-01
       H -2.85878e+00  1.16078e+00  1.26974e+00
       H -4.09745e+00  1.20239e+00  2.75440e-01
4
# CELL(abcABC): 1000.00000  1000.00000  1000.00000    90.00000    90.00000    90.00000  Step:          64  Bead:       0 positions{angstrom}  cell{angstrom}
       O -3.13920e+00  1.09004e+00  3.35077e-01
       H -2.59504e+00  4.02069e-01 -1.76893e-01
       H -2.85148e+00  1.16358e+00  1.26292e+00
       H -4.10969e+00  1.20245e+00  2.80817e-01
4
# CELL(abcABC): 1000.00000  1000.00000  1000.00000    90.00000    90.00000    90.00000  Step:          65  Bead:       0 positions{angstrom}  cell{angstrom}
       O -3.13933e+00  1.09018e+00  3.35695e-01
       H -2.59018e+00  3.98194e-01 -1.84332e-01
       H -2.84271e+00  1.16710e+00  1.25582e+00
       H -4.12121e+00  1.20069e+00  2.85546e-01
4
# CELL(abcABC): 1000.00000  1000.00000  1000.00000    90.00000    90.00000    90.00000  Step:          66  Bead:       0 positions{angstrom}  cell{angstrom}
       O -3.13944e+00  1.09007e+00  3.36132e-01
       H -2.58851e+00  4.00548e-01 -1.88721e-01
       H -2.83286e+00  1.16873e+00  1.24945e+00
       H -4.13107e+00  1.19845e+00  2.89367e-01
4
# CELL(abcABC): 1000.00000  1000.00000  1000.00000    90.00000    90.00000    90.00000  Step:          67  Bead:       0 positions{angstrom}  cell{angstrom}
       O -3.13946e+00  1.08988e+00  3.36439e-01
       H -2.58981e+00  4.05931e-01 -1.91507e-01
       H -2.82151e+00  1.17013e+00  1.24441e+00
       H -4.14072e+00  1.19465e+00  2.92315e-01
4
# CELL(abcABC): 1000.00000  1000.00000  1000.00000    90.00000    90.00000    90.00000  Step:          68  Bead:       0 positions{angstrom}  cell{angstrom}
       O -3.13954e+00  1.08950e+00  3.36757e-01
       H -2.59366e+00  4.14783e-01 -1.92336e-01
       H -2.80885e+00  1.17141e+00  1.23876e+00
       H -4.14825e+00  1.19058e+00  2.93751e-01
4
# CELL(abcABC): 1000.00000  1000.00000  1000.00000    90.00000    90.00000    90.00000  Step:          69  Bead:       0 positions{angstrom}  cell{angstrom}
       O -3.13963e+00  1.08911e+00  3.36769e-01
       H -2.60073e+00  4.25319e-01 -1.89675e-01
       H -2.79594e+00  1.17271e+00  1.23512e+00
       H -4.15272e+00  1.18493e+00  2.94538e-01
4
# CELL(abcABC): 1000.00000  1000.00000  1000.00000    90.00000    90.00000    90.00000  Step:          70  Bead:       0 positions{angstrom}  cell{angstrom}
       O -3.13998e+00  1.08850e+00  3.36702e-01
       H -2.60969e+00  4.38762e-01 -1.86735e-01
       H -2.78206e+00  1.17485e+00  1.23216e+00
       H -4.15213e+00  1.17897e+00  2.95610e-01
4
# CELL(abcABC): 1000.00000  1000.00000  1000.00000    90.00000    90.00000    90.00000  Step:          71  Bead:       0 positions{angstrom}  cell{angstrom}
       O -3.14041e+00  1.08795e+00  3.36694e-01
       H -2.62080e+00  4.52253e-01 -1.84871e-01
       H -2.76807e+00  1.17664e+00  1.22939e+00
       H -4.14804e+00  1.17242e+00  2.96651e-01
4
# CELL(abcABC): 1000.00000  1000.00000  1000.00000    90.00000    90.00000    90.00000  Step:          72  Bead:       0 positions{angstrom}  cell{angstrom}
       O -3.14106e+00  1.08735e+00  3.36705e-01
       H -2.63208e+00  4.65860e-01 -1.83415e-01
       H -2.75360e+00  1.17884e+00  1.22767e+00
       H -4.14104e+00  1.16623e+00  2.96747e-01
4
# CELL(abcABC): 1000.00000  1000.00000  1000.00000    90.00000    90.00000    90.00000  Step:          73  Bead:       0 positions{angstrom}  cell{angstrom}
       O -3.14183e+00  1.08689e+00  3.36949e-01
       H -2.64296e+00  4.77794e-01 -1.83897e-01
       H -2.73923e+00  1.18169e+00  1.22580e+00
       H -4.13222e+00  1.15871e+00  2.95218e-01
4
# CELL(abcABC): 1000.00000  1000.00000  1000.00000    90.00000    90.00000    90.00000  Step:          74  Bead:       0 positions{angstrom}  cell{angstrom}
       O -3.14280e+00  1.08655e+00  3.37603e-01
       H -2.65205e+00  4.87085e-01 -1.88466e-01
       H -2.72532e+00  1.18486e+00  1.22216e+00
       H -4.12162e+00  1.15156e+00  2.93057e-01
4
# CELL(abcABC): 1000.00000  1000.00000  1000.00000    90.00000    90.00000    90.00000  Step:          75  Bead:       0 positions{angstrom}  cell{angstrom}
       O -3.14374e+00  1.08647e+00  3.38557e-01
       H -2.65954e+00  4.91958e-01 -1.96986e-01
       H -2.71278e+00  1.18773e+00  1.21844e+00
       H -4.11185e+00  1.14515e+00  2.90153e-01
4
# CELL(abcABC): 1000.00000  1000.00000  1000.00000    90.00000    90.00000    90.00000  Step:          76  Bead:       0 positions{angstrom}  cell{angstrom}
       O -3.14480e+00  1.08647e+00  3.39691e-01
       H -2.66398e+00  4.93572e-01 -2.07857e-01
       H -2.70141e+00  1.19089e+00  1.21384e+00
       H -4.10188e+00  1.14035e+00  2.87618e-01
4
# CELL(abcABC): 1000.00000  1000.00000  1000.00000    90.00000    90.00000    90.00000  Step:          77  Bead:       0 positions{angstrom}  cell{angstrom}
       O -3.14573e+00  1.08661e+00  3.41057e-01
       H -2.66659e+00  4.93062e-01 -2.21688e-01
       H -2.69172e+00  1.19456e+00  1.20887e+00
       H -4.09423e+00  1.13494e+00  2.84744e-01
4
# CELL(abcABC): 1000.00000  1000.00000  1000.00000    90.00000    90.00000    90.00000  Step:          78  Bead:       0 positions{angstrom}  cell{angstrom}
       O -3.14645e+00  1.08688e+00  3.42788e-01
       H -2.66905e+00  4.89710e-01 -2.38579e-01
       H -2.68245e+00  1.19903e+00  1.20275e+00
       H -4.08962e+00  1.12959e+00  2.80267e-01
4
# CELL(abcABC): 1000.00000  1000.00000  1000.00000    90.00000    90.00000    90.00000  Step:          79  Bead:       0 positions{angstrom}  cell{angstrom}
       O -3.14699e+00  1.08729e+00  3.44595e-01
       H -2.67164e+00  4.85860e-01 -2.55164e-01
       H -2.67303e+00  1.20275e+00  1.19576e+00
       H -4.08782e+00  1.12324e+00  2.75167e-01
4
# CELL(abcABC): 1000.00000  1000.00000  1000.00000    90.00000    90.00000    90.00000  Step:          80  Bead:       0 positions{angstrom}  cell{angstrom}
       O -3.14734e+00  1.08769e+00  3.46301e-01
       H -2.67402e+00  4.82349e-01 -2.71579e-01
       H -2.66416e+00  1.20628e+00  1.18945e+00
       H -4.08875e+00  1.11683e+00  2.70813e-01
4
# CELL(abcABC): 1000.00000  1000.00000  1000.00000    90.00000    90.00000    90.00000  Step:          81  Bead:       0 positions{angstrom}  cell{angstrom}
       O -3.14745e+00  1.08787e+00  3.47982e-01
       H -2.67505e+00  4.80740e-01 -2.87414e-01
       H -2.65664e+00  1.21174e+00  1.18323e+00
       H -4.09355e+00  1.11009e+00  2.66175e-01
4
# CELL(abcABC): 1000.00000  1000.00000  1000.00000    90.00000    90.00000    90.00000  Step:          82  Bead:       0 positions{angstrom}  cell{angstrom}
       O -3.14726e+00  1.08805e+00  3.49394e-01
       H -2.67660e+00  4.80398e-01 -3.00373e-01
       H -2.64939e+00  1.21608e+00  1.17712e+00
       H -4.10228e+00  1.10323e+00  2.62833e-01
4
# CELL(abcABC): 1000.00000  1000.00000  1000.00000    90.00000    90.00000    90.00000  Step:          83  Bead:       0 positions{angstrom}  cell{angstrom}
       O -3.14686e+00  1.08799e+00  3.50559e-01
       H -2.67956e+00  4.82877e-01 -3.10139e-01
       H -2.64264e+00  1.22094e+00  1.17147e+00
       H -4.11243e+00  1.09690e+00  2.59749e-01
4
# CELL(abcABC): 1000.00000  1000.00000  1000.00000    90.00000    90.00000    90.00000  Step:          84  Bead:       0 positions{angstrom}  cell{angstrom}
       O -3.14626e+00  1.08773e+00  3.51463e-01
       H -2.68297e+00  4.87257e-01 -3.17829e-01
       H -2.63730e+00  1.22616e+00  1.16636e+00
       H -4.12390e+00  1.09145e+00  2.58210e-01
4
# CELL(abcABC): 1000.00000  1000.00000  1000.00000    90.00000    90.00000    90.00000  Step:          85  Bead:       0 positions{angstrom}  cell{angstrom}