4
# CELL(abcABC): 1000.00000  1000.00000  1000.00000    90.00000    90.00000    90.00000  Step:           0  Bead:       0 positions{angstrom}  cell{angstrom}
       O -3.15502e+00  1.07246e+00  3.50706e-01
       H -3.45044e+00  7.81893e-01  1.17609e+00
       H -2.30927e+00  1.48702e+00  4.09629e-01
       H -3.54533e+00  7.78299e-01 -4.66964e-01
4
# CELL(abcABC): 1000.00000  1000.00000  1000.00000    90.00000    90.00000    90.00000  Step:           1  Bead:       0 positions{angstrom}  cell{angstrom}
       O -3.15334e+00  1.07278e+00  3.50049e-01
       H -3.46158e+00  7.73661e-01  1.18322e+00
       H -2.30735e+00  1.48725e+00  4.10426e-01
       H -3.56281e+00  7.81258e-01 -4.64472e-01
4
# CELL(abcABC): 1000.00000  1000.00000  1000.00000    90.00000    90.00000    90.00000  Step:           2  Bead:       0 positions{angstrom}  cell{angstrom}
       O -3.15181e+00  1.07307e+00  3.49266e-01
       H -3.47492e+00  7.64371e-01  1.19471e+00
       H -2.30041e+00  1.48924e+00  4.10572e-01
       H -3.58073e+00  7.83841e-01 -4.63672e-01
4
# CELL(abcABC): 1000.00000  1000.00000  1000.00000    90.00000    90.00000    90.00000  Step:           3  Bead:       0 positions{angstrom}  cell{angstrom}
       O -3.15034e+00  1.07336e+00  3.48414e-01
       H -3.48871e+00  7.53600e-01  1.20948e+00
       H -2.29107e+00  1.49379e+00  4.10779e-01
       H -3.59962e+00  7.85598e-01 -4.65122e-01
4
# CELL(abcABC): 1000.00000  1000.00000  1000.00000    90.00000    90.00000    90.00000  Step:           4  Bead:       0 positions{angstrom}  cell{angstrom}
       O -3.14901e+00  1.07360e+00  3.47768e-01
       H -3.50256e+00  7.42285e-01  1.22230e+00
       H -2.27957e+00  1.50000e+00  4.10033e-01
       H -3.61823e+00  7.86901e-01 -4.66948e-01
4
# CELL(abcABC): 1000.00000  1000.00000  1000.00000    90.00000    90.00000    90.00000  Step:           5  Bead:       0 positions{angstrom}  cell{angstrom}
       O -3.14773e+00  1.07361e+00  3.47374e-01
       H -3.51607e+00  7.32407e-01  1.23215e+00
       H -2.26857e+00  1.50780e+00  4.09853e-01
       H -3.63618e+00  7.88796e-01 -4.70366e-01
4
# CELL(abcABC): 1000.00000  1000.00000  1000.00000    90.00000    90.00000    90.00000  Step:           6  Bead:       0 positions{angstrom}  cell{angstrom}
       O -3.14645e+00  1.07356e+00  3.47274e-01
       H -3.52762e+00  7.24784e-01  1.23705e+00
       H -2.25934e+00  1.51387e+00  4.08301e-01
       H -3.65408e+00  7.91035e-01 -4.72124e-01
4
# CELL(abcABC): 1000.00000  1000.00000  1000.00000    90.00000    90.00000    90.00000  Step:           7  Bead:       0 positions{angstrom}  cell{angstrom}
       O -3.14535e+00  1.07328e+00  3.47249e-01
       H -3.53526e+00  7.19535e-01  1.23853e+00
       H -2.25240e+00  1.51891e+00  4.07248e-01
       H -3.67083e+00  7.95712e-01 -4.72143e-01
4
# CELL(abcABC): 1000.00000  1000.00000  1000.00000    90.00000    90.00000    90.00000  Step:           8  Bead:       0 positions{angstrom}  cell{angstrom}
       O -3.14447e+00  1.07287e+00  3.47533e-01
       H -3.53908e+00  7.16868e-01  1.23435e+00
       H -2.24724e+00  1.52194e+00  4.05332e-01
       H -3.68622e+00  8.01929e-01 -4.70564e-01
4
# CELL(abcABC): 1000.00000  1000.00000  1000.00000    90.00000    90.00000    90.00000  Step:           9  Bead:       0 positions{angstrom}  cell{angstrom}
       O -3.14375e+00  1.07240e+00  3.47908e-01
       H -3.53986e+00  7.15921e-01  1.22651e+00
       H -2.24425e+00  1.52368e+00  4.03867e-01
       H -3.69982e+00  8.08530e-01 -4.67213e-01
4
# CELL(abcABC): 1000.00000  1000.00000  1000.00000    90.00000    90.00000    90.00000  Step:          10  Bead:       0 positions{angstrom}  cell{angstrom}
       O -3.14316e+00  1.07174e+00  3.48575e-01
       H -3.53745e+00  7.17356e-01  1.21367e+00
       H -2.24452e+00  1.52445e+00  4.01585e-01
       H -3.71140e+00  8.16796e-01 -4.62672e-01
4
# CELL(abcABC): 1000.00000  1000.00000  1000.00000    90.00000    90.00000    90.00000  Step:          11  Bead:       0 positions{angstrom}  cell{angstrom}
       O -3.14267e+00  1.07099e+00  3.49483e-01
       H -3.53197e+00  7.21581e-01  1.19630e+00
       H -2.24947e+00  1.52322e+00  3.98861e-01
       H -3.71968e+00  8.25770e-01 -4.56997e-01
4
# CELL(abcABC): 1000.00000  1000.00000  1000.00000    90.00000    90.00000    90.00000  Step:          12  Bead:       0 positions{angstrom}  cell{angstrom}
       O -3.14242e+00  1.07022e+00  3.50467e-01
       H -3.52289e+00  7.27143e-01  1.17702e+00
       H -2.25752e+00  1.51921e+00  3.95170e-01
       H -3.72461e+00  8.36448e-01 -4.49631e-01
4
# CELL(abcABC): 1000.00000  1000.00000  1000.00000    90.00000    90.00000    90.00000  Step:          13  Bead:       0 positions{angstrom}  cell{angstrom}
       O -3.14235e+00  1.06943e+00  3.51303e-01
       H -3.51231e+00  7.33985e-01  1.15863e+00
       H -2.26654e+00  1.51385e+00  3.91584e-01
       H -3.72737e+00  8.47516e-01 -4.40934e-01
4
# CELL(abcABC): 1000.00000  1000.00000  1000.00000    90.00000    90.00000    90.00000  Step:          14  Bead:       0 positions{angstrom}  cell{angstrom}
       O -3.14242e+00  1.06862e+00  3.51827e-01
       H -3.50005e+00  7.40247e-01  1.14396e+00
       H -2.27637e+00  1.50836e+00  3.88121e-01
       H -3.72864e+00  8.59493e-01 -4.31121e-01
4
# CELL(abcABC): 1000.00000  1000.00000  1000.00000    90.00000    90.00000    90.00000  Step:          15  Bead:       0 positions{angstrom}  cell{angstrom}
       O -3.14249e+00  1.06775e+00  3.51718e-01
       H -3.49065e+00  7.44666e-01  1.13741e+00
       H -2.28706e+00  1.50327e+00  3.85027e-01
       H -3.72629e+00  8.73986e-01 -4.19749e-01
4
# CELL(abcABC): 1000.00000  1000.00000  1000.00000    90.00000    90.00000    90.00000  Step:          16  Bead:       0 positions{angstrom}  cell{angstrom}
       O -3.14264e+00  1.06686e+00  3.51134e-01
       H -3.48189e+00  7.46762e-01  1.13806e+00
       H -2.29700e+00  1.49985e+00  3.82182e-01
       H -3.72260e+00  8.89540e-01 -4.08283e-01
4
# CELL(abcABC): 1000.00000  1000.00000  1000.00000    90.00000    90.00000    90.00000  Step:          17  Bead:       0 positions{angstrom}  cell{angstrom}
       O -3.14276e+00  1.06598e+00  3.50096e-01
       H -3.47440e+00  7.47163e-01  1.14692e+00
       H -2.30593e+00  1.49838e+00  3.78531e-01
       H -3.71933e+00  9.04476e-01 -3.97019e-01
4
# CELL(abcABC): 1000.00000  1000.00000  1000.00000    90.00000    90.00000    90.00000  Step:          18  Bead:       0 positions{angstrom}  cell{angstrom}
       O -3.14290e+00  1.06500e+00  3.48726e-01
       H -3.46966e+00  7.46560e-01  1.16305e+00
       H -2.31077e+00  1.49881e+00  3.74880e-01
       H -3.71692e+00  9.20218e-01 -3.87752e-01
4
# CELL(abcABC): 1000.00000  1000.00000  1000.00000    90.00000    90.00000    90.00000  Step:          19  Bead:       0 positions{angstrom}  cell{angstrom}
       O -3.14322e+00  1.06400e+00  3.47199e-01
       H -3.46554e+00  7.44752e-01  1.18470e+00
       H -2.31296e+00  1.50084e+00  3.70552e-01
       H -3.71385e+00  9.35935e-01 -3.80831e-01
4
# CELL(abcABC): 1000.00000  1000.00000  1000.00000    90.00000    90.00000    90.00000  Step:          20  Bead:       0 positions{angstrom}  cell{angstrom}
       O -3.14361e+00  1.06292e+00  3.45816e-01
       H -3.46152e+00  7.43226e-01  1.20738e+00
       H -2.31266e+00  1.50519e+00  3.66368e-01
       H -3.71194e+00  9.50168e-01 -3.77380e-01
4
# CELL(abcABC): 1000.00000  1000.00000  1000.00000    90.00000    90.00000    90.00000  Step:          21  Bead:       0 positions{angstrom}  cell{angstrom}
       O -3.14415e+00  1.06171e+00  3.44792e-01
       H -3.45740e+00  7.41818e-01  1.22886e+00
       H -2.30770e+00  1.51209e+00  3.62966e-01
       H -3.71249e+00  9.63959e-01 -3.79195e-01
4
# CELL(abcABC): 1000.00000  1000.00000  1000.00000    90.00000    90.00000    90.00000  Step:          22  Bead:       0 positions{angstrom}  cell{angstrom}
       O -3.14478e+00  1.06028e+00  3.44289e-01
       H -3.45339e+00  7.40762e-01  1.24923e+00
       H -2.29856e+00  1.52068e+00  3.57730e-01
       H -3.71559e+00  9.79132e-01 -3.86351e-01
4
# CELL(abcABC): 1000.00000  1000.00000  1000.00000    90.00000    90.00000    90.00000  Step:          23  Bead:       0 positions{angstrom}  cell{angstrom}
       O -3.14543e+00  1.05872e+00  3.44474e-01
       H -3.44789e+00  7.41945e-01  1.26539e+00
       H -2.28787e+00  1.53034e+00  3.52634e-01
       H -3.72152e+00  9.93046e-01 -4.00335e-01
4
# CELL(abcABC): 1000.00000  1000.00000  1000.00000    90.00000    90.00000    90.00000  Step:          24  Bead:       0 positions{angstrom}  cell{angstrom}
       O -3.14604e+00  1.05698e+00  3.45152e-01
       H -3.44035e+00  7.44117e-01  1.27680e+00
       H -2.27766e+00  1.54074e+00  3.47565e-01
       H -3.72958e+00  1.00814e+00 -4.17442e-01
4
# CELL(abcABC): 1000.00000  1000.00000  1000.00000    90.00000    90.00000    90.00000  Step:          25  Bead:       0 positions{angstrom}  cell{angstrom}
       O -3.14651e+00  1.05528e+00  3.46156e-01
       H -3.43144e+00  7.47379e-01  1.28387e+00
       H -2.27002e+00  1.54930e+00  3.42539e-01
       H -3.73862e+00  1.02328e+00 -4.35421e-01
4
# CELL(abcABC): 1000.00000  1000.00000  1000.00000    90.00000    90.00000    90.00000  Step:          26  Bead:       0 positions{angstrom}  cell{angstrom}
       O -3.14685e+00  1.05366e+00  3.47452e-01
       H -3.42129e+00  7.52034e-01  1.28501e+00
       H -2.26531e+00  1.55575e+00  3.37277e-01
       H -3.74813e+00  1.03780e+00 -4.51882e-01
4
# CELL(abcABC): 1000.00000  1000.00000  1000.00000    90.00000    90.00000    90.00000  Step:          27  Bead:       0 positions{angstrom}  cell{angstrom}
       O -3.14716e+00  1.05208e+00  3.48977e-01
       H -3.41033e+00  7.59504e-01  1.28066e+00
       H -2.26441e+00  1.55905e+00  3.31753e-01
       H -3.75514e+00  1.05216e+00 -4.66207e-01
4
# CELL(abcABC): 1000.00000  1000.00000  1000.00000    90.00000    90.00000    90.00000  Step:          28  Bead:       0 positions{angstrom}  cell{angstrom}
       O -3.14727e+00  1.05059e+00  3.50512e-01
       H -3.39985e+00  7.66959e-01  1.27223e+00
       H -2.26702e+00  1.55997e+00  3.26664e-01
       H -3.76121e+00  1.06746e+00 -4.77057e-01
4
# CELL(abcABC): 1000.00000  1000.00000  1000.00000    90.00000    90.00000    90.00000  Step:          29  Bead:       0 positions{angstrom}  cell{angstrom}
       O -3.14727e+00  1.04918e+00  3.51997e-01
       H -3.38856e+00  7.75780e-01  1.25976e+00
       H -2.27459e+00  1.55833e+00  3.21848e-01
       H -3.76484e+00  1.08270e+00 -4.83342e-01
4
# CELL(abcABC): 1000.00000  1000.00000  1000.00000    90.00000    90.00000    90.00000  Step:          30  Bead:       0 positions{angstrom}  cell{angstrom}
       O -3.14716e+00  1.04780e+00  3.53227e-01
       H -3.37739e+00  7.86025e-01  1.24728e+00
       H -2.28593e+00  1.55440e+00  3.17784e-01
       H -3.76653e+00  1.09826e+00 -4.86326e-01
4
# CELL(abcABC): 1000.00000  1000.00000  1000.00000    90.00000    90.00000    90.00000  Step:          31  Bead:       0 positions{angstrom}  cell{angstrom}
       O -3.14707e+00  1.04646e+00  3.54144e-01
       H -3.36583e+00  7.96172e-01  1.23636e+00
       H -2.29931e+00  1.54988e+00  3.13421e-01
       H -3.76607e+00  1.11394e+00 -4.85597e-01
4
# CELL(abcABC): 1000.00000  1000.00000  1000.00000    90.00000    90.00000    90.00000  Step:          32  Bead:       0 positions{angstrom}  cell{angstrom}
       O -3.14689e+00  1.04536e+00  3.54368e-01
       H -3.35703e+00  8.03495e-01  1.22962e+00
       H -2.31364e+00  1.54562e+00  3.10558e-01
       H -3.76346e+00  1.12824e+00 -4.79546e-01
4
# CELL(abcABC): 1000.00000  1000.00000  1000.00000    90.00000    90.00000    90.00000  Step:          33  Bead:       0 positions{angstrom}  cell{angstrom}
       O -3.14666e+00  1.04454e+00  3.53892e-01
       H -3.35112e+00  8.08650e-01  1.22917e+00
       H -2.32772e+00  1.54020e+00  3.08398e-01
       H -3.75894e+00  1.14149e+00 -4.69381e-01
4
# CELL(abcABC): 1000.00000  1000.00000  1000.00000    90.00000    90.00000    90.00000  Step:          34  Bead:       0 positions{angstrom}  cell{angstrom}
       O -3.14632e+00  1.04387e+00  3.52937e-01
       H -3.34731e+00  8.11936e-01  1.23396e+00
       H -2.34217e+00  1.53505e+00  3.06672e-01
       H -3.75359e+00  1.15401e+00 -4.57294e-01
4
# CELL(abcABC): 1000.00000  1000.00000  1000.00000    90.00000    90.00000    90.00000  Step:          35  Bead:       0 positions{angstrom}  cell{angstrom}
       O -3.14614e+00  1.04321e+00  3.51502e-01
       H -3.34426e+00  8.13534e-01  1.24273e+00
       H -2.35462e+00  1.53267e+00  3.05577e-01
       H -3.74712e+00  1.16529e+00 -4.42192e-01
4
# CELL(abcABC): 1000.00000  1000.00000  1000.00000    90.00000    90.00000    90.00000  Step:          36  Bead:       0 positions{angstrom}  cell{angstrom}
       O -3.14617e+00  1.04243e+00  3.49753e-01
       H -3.34317e+00  8.13814e-01  1.25435e+00
       H -2.36222e+00  1.53439e+00  3.03457e-01
       H -3.74009e+00  1.17569e+00 -4.23934e-01
4
# CELL(abcABC): 1000.00000  1000.00000  1000.00000    90.00000    90.00000    90.00000  Step:          37  Bead:       0 positions{angstrom}  cell{angstrom}
       O -3.14646e+00  1.04161e+00  3.47745e-01
       H -3.34330e+00  8.13992e-01  1.26935e+00
       H -2.36388e+00  1.53876e+00  3.00576e-01
       H -3.73368e+00  1.18420e+00 -4.04163e-01
4
# CELL(abcABC): 1000.00000  1000.00000  1000.00000    90.00000    90.00000    90.00000  Step:          38  Bead:       0 positions{angstrom}  cell{angstrom}
       O -3.14675e+00  1.04065e+00  3.45959e-01
       H -3.34581e+00  8.13533e-01  1.28276e+00
       H -2.36019e+00  1.54511e+00  2.97120e-01
       H -3.73031e+00  1.19347e+00 -3.85768e-01
4
# CELL(abcABC): 1000.00000  1000.00000  1000.00000    90.00000    90.00000    90.00000  Step:          39  Bead:       0 positions{angstrom}  cell{angstrom}
       O -3.14726e+00  1.03969e+00  3.44300e-01
       H -3.34855e+00  8.12488e-01  1.29461e+00
       H -2.35171e+00  1.55269e+00  2.94345e-01
       H -3.72796e+00  1.20219e+00 -3.68527e-01
4
# CELL(abcABC): 1000.00000  1000.00000  1000.00000    90.00000    90.00000    90.00000  Step:          40  Bead:       0 positions{angstrom}  cell{angstrom}
       O -3.14774e+00  1.03858e+00  3.42833e-01
       H -3.35186e+00  8.11936e-01  1.30404e+00
       H -2.34002e+00  1.56176e+00  2.93126e-01
       H -3.72869e+00  1.21131e+00 -3.53433e-01
4
# CELL(abcABC): 1000.00000  1000.00000  1000.00000    90.00000    90.00000    90.00000  Step:          41  Bead:       0 positions{angstrom}  cell{angstrom}
       O -3.14801e+00  1.03738e+00  3.41788e-01
       H -3.35579e+00  8.12723e-01  1.30868e+00
       H -2.32652e+00  1.57137e+00  2.92317e-01
       H -3.73402e+00  1.22004e+00 -3.40681e-01
4
# CELL(abcABC): 1000.00000  1000.00000  1000.00000    90.00000    90.00000    90.00000  Step:          42  Bead:       0 positions{angstrom}  cell{angstrom}
       O -3.14805e+00  1.03629e+00  3.41313e-01
       H -3.35838e+00  8.12388e-01  1.30820e+00
       H -2.31328e+00  1.58002e+00  2.92124e-01
       H -3.74395e+00  1.22898e+00 -3.32469e-01
4
# CELL(abcABC): 1000.00000  1000.00000  1000.00000    90.00000    90.00000    90.00000  Step:          43  Bead:       0 positions{angstrom}  cell{angstrom}
       O -3.14768e+00  1.03519e+00  3.41348e-01
       H -3.36122e+00  8.13600e-01  1.30259e+00
       H -2.30189e+00  1.58804e+00  2.92534e-01
       H -3.75844e+00  1.23724e+00 -3.27832e-01
4
# CELL(abcABC): 1000.00000  1000.00000  1000.00000    90.00000    90.00000    90.00000  Step:          44  Bead:       0 positions{angstrom}  cell{angstrom}
       O -3.14685e+00  1.03423e+00  3.41796e-01
       H -3.36379e+00  8.14762e-01  1.29212e+00
       H -2.29353e+00  1.59296e+00  2.92936e-01
       H -3.77744e+00  1.24630e+00 -3.24875e-01
4
# CELL(abcABC): 1000.00000  1000.00000  1000.00000    90.00000    90.00000    90.00000  Step:          45  Bead:       0 positions{angstrom}  cell{angstrom}
       O -3.14551e+00  1.03348e+00  3.42583e-01
       H -3.36688e+00  8.16472e-01  1.27777e+00
       H -2.28829e+00  1.59409e+00  2.93051e-01
       H -3.80086e+00  1.25541e+00 -3.23130e-01
4
# CELL(abcABC): 1000.00000  1000.00000  1000.00000    90.00000    90.00000    90.00000  Step:          46  Bead:       0 positions{angstrom}  cell{angstrom}
       O -3.14385e+00  1.03298e+00  3.43511e-01
       H -3.37014e+00  8.18915e-01  1.26125e+00
       H -2.28729e+00  1.59103e+00  2.93241e-01
       H -3.82486e+00  1.26401e+00 -3.21522e-01
4
# CELL(abcABC): 1000.00000  1000.00000  1000.00000    90.00000    90.00000    90.00000  Step:          47  Bead:       0 positions{angstrom}  cell{angstrom}
       O -3.14190e+00  1.03263e+00  3.44487e-01
       H -3.37363e+00  8.20816e-01  1.24509e+00
       H -2.29013e+00  1.58494e+00  2.93103e-01
       H -3.84958e+00  1.27373e+00 -3.20723e-01
4
# CELL(abcABC): 1000.00000  1000.00000  1000.00000    90.00000    90.00000    90.00000  Step:          48  Bead:       0 positions{angstrom}  cell{angstrom}
       O -3.13974e+00  1.03265e+00  3.45193e-01
       H -3.37713e+00  8.20973e-01  1.23131e+00
       H -2.29645e+00  1.57657e+00  2.92732e-01
       H -3.87396e+00  1.28159e+00 -3.17787e-01
4
# CELL(abcABC): 1000.00000  1000.00000  1000.00000    90.00000    90.00000    90.00000  Step:          49  Bead:       0 positions{angstrom}  cell{angstrom}
       O -3.13756e+00  1.03296e+00  3.45378e-01
       H -3.38126e+00  8.19530e-01  1.22188e+00
       H -2.30418e+00  1.56566e+00  2.92924e-01
       H -3.89672e+00  1.28909e+00 -3.11483e-01
4
# CELL(abcABC): 1000.00000  1000.00000  1000.00000    90.00000    90.00000    90.00000  Step:          50  Bead:       0 positions{angstrom}  cell{angstrom}
       O -3.13526e+00  1.03359e+00  3.45168e-01
       H -3.38651e+00  8.16805e-01  1.21696e+00
       H -2.31503e+00  1.55260e+00  2.93543e-01
       H -3.91710e+00  1.29488e+00 -3.03837e-01
4
# CELL(abcABC): 1000.00000  1000.00000  1000.00000    90.00000    90.00000    90.00000  Step:          51  Bead:       0 positions{angstrom}  cell{angstrom}
       O -3.13318e+00  1.03440e+00  3.44457e-01
       H -3.39285e+00  8.12186e-01  1.21662e+00
       H -2.32592e+00  1.53963e+00  2.94203e-01
       H -3.93292e+00  1.29959e+00 -2.92881e-01
4
# CELL(abcABC): 1000.00000  1000.00000  1000.00000    90.00000    90.00000    90.00000  Step:          52  Bead:       0 positions{angstrom}  cell{angstrom}
       O -3.13146e+00  1.03540e+00  3.43394e-01
       H -3.40002e+00  8.05994e-01  1.22071e+00
       H -2.33486e+00  1.52720e+00  2.93742e-01
       H -3.94418e+00  1.30222e+00 -2.79625e-01
4
# CELL(abcABC): 1000.00000  1000.00000  1000.00000    90.00000    90.00000    90.00000  Step:          53  Bead:       0 positions{angstrom}  cell{angstrom}
       O -3.13030e+00  1.03638e+00  3.41933e-01
       H -3.40653e+00  7.99300e-01  1.22706e+00
       H -2.33996e+00  1.51862e+00  2.93781e-01
       H -3.95096e+00  1.30197e+00 -2.62818e-01
4
# CELL(abcABC): 1000.00000  1000.00000  1000.00000    90.00000    90.00000    90.00000  Step:          54  Bead:       0 positions{angstrom}  cell{angstrom}
       O -3.12979e+00  1.03736e+00  3.39960e-01
       H -3.41244e+00  7.91092e-01  1.23621e+00
       H -2.33999e+00  1.51413e+00  2.94385e-01
       H -3.95313e+00  1.29921e+00 -2.41269e-01
4
# CELL(abcABC): 1000.00000  1000.00000  1000.00000    90.00000    90.00000    90.00000  Step:          55  Bead:       0 positions{angstrom}  cell{angstrom}
       O -3.13004e+00  1.03819e+00  3.37840e-01
       H -3.41762e+00  7.82875e-01  1.24624e+00
       H -2.33398e+00  1.51349e+00  2.95440e-01
       H -3.94993e+00  1.29476e+00 -2.18692e-01
4
# CELL(abcABC): 1000.00000  1000.00000  1000.00000    90.00000    90.00000    90.00000  Step:          56  Bead:       0 positions{angstrom}  cell{angstrom}
       O -3.13104e+00  1.03882e+00  3.35743e-01
       H -3.41868e+00  7.75224e-01  1.25544e+00
       H -2.32290e+00  1.51598e+00  2.95218e-01
       H -3.94405e+00  1.29005e+00 -1.94394e-01
4
# CELL(abcABC): 1000.00000  1000.00000  1000.00000    90.00000    90.00000    90.00000  Step:          57  Bead:       0 positions{angstrom}  cell{angstrom}
       O -3.13259e+00  1.03922e+00  3.33749e-01
       H -3.41573e+00  7.68810e-01  1.26262e+00
       H -2.30921e+00  1.52051e+00  2.95855e-01
       H -3.93619e+00  1.28552e+00 -1.70562e-01
4
# CELL(abcABC): 1000.00000  1000.00000  1000.00000    90.00000    90.00000    90.00000  Step:          58  Bead:       0 positions{angstrom}  cell{angstrom}
       O -3.13457e+00  1.03951e+00  3.32025e-01
       H -3.40898e+00  7.62524e-01  1.26634e+00
       H -2.29336e+00  1.52641e+00  2.97051e-01
       H -3.92728e+00  1.28125e+00 -1.48114e-01
4
# CELL(abcABC): 1000.00000  1000.00000  1000.00000    90.00000    90.00000    90.00000  Step:          59  Bead:       0 positions{angstrom}  cell{angstrom}
       O -3.13677e+00  1.03964e+00  3.30549e-01
       H -3.39849e+00  7.57316e-01  1.26654e+00
       H -2.27739e+00  1.53303e+00  2.99814e-01
       H -3.91893e+00  1.27789e+00 -1.27635e-01
4
# CELL(abcABC): 1000.00000  1000.00000  1000.00000    90.00000    90.00000    90.00000  Step:          60  Bead:       0 positions{angstrom}  cell{angstrom}
       O -3.13892e+00  1.03972e+00  3.29556e-01
       H -3.38633e+00  7.52668e-01  1.26323e+00
       H -2.26263e+00  1.53819e+00  3.00967e-01
       H -3.91159e+00  1.27612e+00 -1.09717e-01
4
# CELL(abcABC): 1000.00000  1000.00000  1000.00000    90.00000    90.00000    90.00000  Step:          61  Bead:       0 positions{angstrom}  cell{angstrom}
       O -3.14089e+00  1.03977e+00  3.29072e-01
       H -3.37084e+00  7.48287e-01  1.25649e+00
       H -2.25007e+00  1.54138e+00  3.00740e-01
       H -3.90836e+00  1.27638e+00 -9.50629e-02
4
# CELL(abcABC): 1000.00000  1000.00000  1000.00000    90.00000    90.00000    90.00000  Step:          62  Bead:       0 positions{angstrom}  cell{angstrom}
       O -3.14234e+00  1.03989e+00  3.29200e-01
       H -3.35404e+00  7.43614e-01  1.24687e+00
       H -2.24324e+00  1.54170e+00  2.99827e-01
       H -3.90905e+00  1.27892e+00 -8.65661e-02
4
# CELL(abcABC): 1000.00000  1000.00000  1000.00000    90.00000    90.00000    90.00000  Step:          63  Bead:       0 positions{angstrom}  cell{angstrom}
       O -3.14318e+00  1.03990e+00  3.29598e-01
       H -3.33532e+00  7.40114e-01  1.23641e+00
       H -2.24189e+00  1.53852e+00  2.98475e-01
       H -3.91583e+00  1.28537e+00 -8.10825e-02
4
# CELL(abcABC): 1000.00000  1000.00000  1000.00000    90.00000    90.00000    90.00000  Step:          64  Bead:       0 positions{angstrom}  cell{angstrom}
       O -3.14348e+00  1.03995e+00  3.30274e-01
       H -3.31427e+00  7.36701e-01  1.22698e+00
       H -2.24545e+00  1.53234e+00  2.96789e-01
       H -3.92843e+00  1.29419e+00 -8.06799e-02
4
# CELL(abcABC): 1000.00000  1000.00000  1000.00000    90.00000    90.00000    90.00000  Step:          65  Bead:       0 positions{angstrom}  cell{angstrom}
       O -3.14331e+00  1.04002e+00  3.31150e-01
       H -3.29344e+00  7.33294e-01  1.21786e+00
       H -2.25319e+00  1.52490e+00  2.94465e-01
       H -3.94433e+00  1.30398e+00 -8.31598e-02
4
# CELL(abcABC): 1000.00000  1000.00000  1000.00000    90.00000    90.00000    90.00000  Step:          66  Bead:       0 positions{angstrom}  cell{angstrom}
       O -3.14278e+00  1.04010e+00  3.31963e-01
       H -3.27268e+00  7.31428e-01  1.21225e+00
       H -2.26480e+00  1.51400e+00  2.91856e-01
       H -3.96183e+00  1.31551e+00 -8.78318e-02
4
# CELL(abcABC): 1000.00000  1000.00000  1000.00000    90.00000    90.00000    90.00000  Step:          67  Bead:       0 positions{angstrom}  cell{angstrom}
       O -3.14198e+00  1.04037e+00  3.32672e-01
       H -3.25206e+00  7.27389e-01  1.20970e+00
       H -2.27856e+00  1.50204e+00  2.88995e-01
       H -3.98133e+00  1.32713e+00 -9.36848e-02
4
# CELL(abcABC): 1000.00000  1000.00000  1000.00000    90.00000    90.00000    90.00000  Step:          68  Bead:       0 positions{angstrom}  cell{angstrom}
       O -3.14121e+00  1.04071e+00  3.33346e-01
       H -3.23153e+00  7.21537e-01  1.21123e+00
       H -2.29284e+00  1.49010e+00  2.83549e-01
       H -3.99994e+00  1.33949e+00 -1.00457e-01
4
# CELL(abcABC): 1000.00000  1000.00000  1000.00000    90.00000    90.00000    90.00000  Step:          69  Bead:       0 positions{angstrom}  cell{angstrom}
       O -3.14055e+00  1.04125e+00  3.33629e-01
       H -3.21226e+00  7.12545e-01  1.21860e+00
       H -2.30661e+00  1.47940e+00  2.77751e-01
       H -4.01583e+00  1.35075e+00 -1.06533e-01
4
# CELL(abcABC): 1000.00000  1000.00000  1000.00000    90.00000    90.00000    90.00000  Step:          70  Bead:       0 positions{angstrom}  cell{angstrom}
       O -3.14044e+00  1.04164e+00  3.33758e-01
       H -3.19354e+00  7.02805e-01  1.22806e+00
       H -2.31676e+00  1.47187e+00  2.70143e-01
       H -4.02623e+00  1.36168e+00 -1.10437e-01
4
# CELL(abcABC): 1000.00000  1000.00000  1000.00000    90.00000    90.00000    90.00000  Step:          71  Bead:       0 positions{angstrom}  cell{angstrom}
       O -3.14079e+00  1.04205e+00  3.33877e-01
       H -3.17647e+00  6.91039e-01  1.23770e+00
       H -2.32230e+00  1.46721e+00  2.60332e-01
       H -4.03207e+00  1.37166e+00 -1.12136e-01
4
# CELL(abcABC): 1000.00000  1000.00000  1000.00000    90.00000    90.00000    90.00000  Step:          72  Bead:       0 positions{angstrom}  cell{angstrom}
       O -3.14179e+00  1.04223e+00  3.33950e-01
       H -3.16005e+00  6.79089e-01  1.24770e+00
       H -2.32170e+00  1.46658e+00  2.49382e-01
       H -4.03334e+00  1.38133e+00 -1.12351e-01
4
# CELL(abcABC): 1000.00000  1000.00000  1000.00000    90.00000    90.00000    90.00000  Step:          73  Bead:       0 positions{angstrom}  cell{angstrom}
       O -3.14331e+00  1.04231e+00  3.34175e-01
       H -3.14482e+00  6.67050e-01  1.25623e+00
       H -2.31552e+00  1.47003e+00  2.36611e-01
       H -4.03055e+00  1.38875e+00 -1.11679e-01
4
# CELL(abcABC): 1000.00000  1000.00000  1000.00000    90.00000    90.00000    90.00000  Step:          74  Bead:       0 positions{angstrom}  cell{angstrom}
       O -3.14533e+00  1.04220e+00  3.34697e-01
       H -3.13039e+00  6.55622e-01  1.26100e+00
       H -2.30520e+00  1.47646e+00  2.21036e-01
       H -4.02318e+00  1.39545e+00 -1.09161e-01
4
# CELL(abcABC): 1000.00000  1000.00000  1000.00000    90.00000    90.00000    90.00000  Step:          75  Bead:       0 positions{angstrom}  cell{angstrom}
       O -3.14750e+00  1.04206e+00  3.35385e-01
       H -3.11769e+00  6.44073e-01  1.26205e+00
       H -2.29345e+00  1.48410e+00  2.04950e-01
       H -4.01331e+00  1.40163e+00 -1.05046e-01
4
# CELL(abcABC): 1000.00000  1000.00000  1000.00000    90.00000    90.00000    90.00000  Step:          76  Bead:       0 positions{angstrom}  cell{angstrom}
       O -3.14986e+00  1.04177e+00  3.36114e-01
       H -3.10548e+00  6.33865e-01  1.26068e+00
       H -2.28196e+00  1.49240e+00  1.88152e-01
       H -3.99955e+00  1.40810e+00 -9.84437e-02
4
# CELL(abcABC): 1000.00000  1000.00000  1000.00000    90.00000    90.00000    90.00000  Step:          77  Bead:       0 positions{angstrom}  cell{angstrom}
       O -3.15207e+00  1.04148e+00  3.36958e-01
       H -3.09476e+00  6.25811e-01  1.25570e+00
       H -2.27297e+00  1.50050e+00  1.71661e-01
       H -3.98416e+00  1.41263e+00 -9.03834e-02
4
# CELL(abcABC): 1000.00000  1000.00000  1000.00000    90.00000    90.00000    90.00000  Step:          78  Bead:       0 positions{angstrom}  cell{angstrom}
       O -3.15399e+00  1.04128e+00  3.38095e-01
       H -3.08674e+00  6.18337e-01  1.24641e+00
       H -2.26663e+00  1.50784e+00  1.55081e-01
       H -3.96799e+00  1.41604e+00 -8.25583e-02
4
# CELL(abcABC): 1000.00000  1000.00000  1000.00000    90.00000    90.00000    90.00000  Step:          79  Bead:       0 positions{angstrom}  cell{angstrom}
       O -3.15561e+00  1.04128e+00  3.39290e-01
       H -3.08095e+00  6.12489e-01  1.23558e+00
       H -2.26346e+00  1.51220e+00  1.38897e-01
       H -3.95134e+00  1.41747e+00 -7.45137e-02
4
# CELL(abcABC): 1000.00000  1000.00000  1000.00000    90.00000    90.00000    90.00000  Step:          80  Bead:       0 positions{angstrom}  cell{angstrom}
       O -3.15683e+00  1.04144e+00  3.40427e-01
       H -3.07634e+00  6.07785e-01  1.22272e+00
       H -2.26485e+00  1.51365e+00  1.24737e-01
       H -3.93516e+00  1.41820e+00 -6.55405e-02
4
# CELL(abcABC): 1000.00000  1000.00000  1000.00000    90.00000    90.00000    90.00000  Step:          81  Bead:       0 positions{angstrom}  cell{angstrom}
       O -3.15754e+00  1.04161e+00  3.41631e-01
       H -3.07116e+00  6.04452e-01  1.20819e+00
       H -2.27189e+00  1.51411e+00  1.12015e-01
       H -3.92202e+00  1.41840e+00 -5.74091e-02
4
# CELL(abcABC): 1000.00000  1000.00000  1000.00000    90.00000    90.00000    90.00000  Step:          82  Bead:       0 positions{angstrom}  cell{angstrom}
       O -3.15762e+00  1.04206e+00  3.42688e-01
       H -3.06670e+00  6.00515e-01  1.19462e+00
       H -2.28337e+00  1.51054e+00  1.00633e-01
       H -3.91376e+00  1.41872e+00 -4.92360e-02
4
# CELL(abcABC): 1000.00000  1000.00000  1000.00000    90.00000    90.00000    90.00000  Step:          83  Bead:       0 positions{angstrom}  cell{angstrom}
       O -3.15710e+00  1.04259e+00  3.43644e-01
       H -3.06344e+00  5.96453e-01  1.18282e+00
       H -2.29894e+00  1.50483e+00  9.06608e-02
       H -3.90970e+00  1.42013e+00 -4.26295e-02
4
# CELL(abcABC): 1000.00000  1000.00000  1000.00000    90.00000    90.00000    90.00000  Step:          84  Bead:       0 positions{angstrom}  cell{angstrom}
       O -3.15597e+00  1.04324e+00  3.44485e-01
       H -3.06019e+00  5.90615e-01  1.17234e+00
       H -2.31846e+00  1.49731e+00  8.18113e-02
       H -3.91125e+00  1.42309e+00 -3.66554e-02
4
# CELL(abcABC): 1000.00000  1000.00000  1000.00000    90.00000    90.00000    90.00000  Step:          85  Bead:       0 positions{angstrom}  cell{angstrom}