4
# CELL(abcABC): 1000.00000  1000.00000  1000.00000    90.00000    90.00000    90.00000  Step:           0  Bead:       0 positions{angstrom}  cell{angstrom}
       O -3.15242e+00  1.06600e+00  3.56712e-01
       H -3.56073e+00  2.80929e-01  7.09402e-01
       H -3.18912e+00  1.15072e+00 -6.10259e-01
       H -2.59659e+00  1.71822e+00  9.24308e-01
4
# CELL(abcABC): 1000.00000  1000.00000  1000.00000    90.00000    90.00000    90.00000  Step:           1  Bead:       0 positions{angstrom}  cell{angstrom}
       O -3.15067e+00  1.06638e+00  3.56166e-01
       H -3.57057e+00  2.73698e-01  7.13819e-01
       H -3.18879e+00  1.15006e+00 -6.08317e-01
       H -2.61481e+00  1.72009e+00  9.26620e-01
4
# CELL(abcABC): 1000.00000  1000.00000  1000.00000    90.00000    90.00000    90.00000  Step:           2  Bead:       0 positions{angstrom}  cell{angstrom}
       O -3.14894e+00  1.06680e+00  3.55653e-01
       H -3.58019e+00  2.68039e-01  7.18460e-01
       H -3.18653e+00  1.14951e+00 -6.05077e-01
       H -2.63488e+00  1.71957e+00  9.26878e-01
4
# CELL(abcABC): 1000.00000  1000.00000  1000.00000    90.00000    90.00000    90.00000  Step:           3  Bead:       0 positions{angstrom}  cell{angstrom}
       O -3.14717e+00  1.06721e+00  3.55144e-01
       H -3.58831e+00  2.63720e-01  7.24077e-01
       H -3.18428e+00  1.15036e+00 -6.00315e-01
       H -2.65716e+00  1.71658e+00  9.24573e-01
4
# CELL(abcABC): 1000.00000  1000.00000  1000.00000    90.00000    90.00000    90.00000  Step:           4  Bead:       0 positions{angstrom}  cell{angstrom}
       O -3.14548e+00  1.06750e+00  3.54828e-01
       H -3.59520e+00  2.61602e-01  7.27340e-01
       H -3.18122e+00  1.15235e+00 -5.95701e-01
       H -2.68017e+00  1.71207e+00  9.21712e-01
4
# CELL(abcABC): 1000.00000  1000.00000  1000.00000    90.00000    90.00000    90.00000  Step:           5  Bead:       0 positions{angstrom}  cell{angstrom}
       O -3.14381e+00  1.06741e+00  3.54673e-01
       H -3.60111e+00  2.63410e-01  7.28758e-01
       H -3.17870e+00  1.15616e+00 -5.90338e-01
       H -2.70324e+00  1.70788e+00  9.17392e-01
4
# CELL(abcABC): 1000.00000  1000.00000  1000.00000    90.00000    90.00000    90.00000  Step:           6  Bead:       0 positions{angstrom}  cell{angstrom}
       O -3.14220e+00  1.06704e+00  3.54664e-01
       H -3.60511e+00  2.69494e-01  7.27518e-01
       H -3.17683e+00  1.15916e+00 -5.86859e-01
       H -2.72667e+00  1.70472e+00  9.15307e-01
4
# CELL(abcABC): 1000.00000  1000.00000  1000.00000    90.00000    90.00000    90.00000  Step:           7  Bead:       0 positions{angstrom}  cell{angstrom}
       O -3.14084e+00  1.06615e+00  3.54527e-01
       H -3.60596e+00  2.79270e-01  7.25939e-01
       H -3.17522e+00  1.16259e+00 -5.83851e-01
       H -2.74911e+00  1.70564e+00  9.16039e-01
4
# CELL(abcABC): 1000.00000  1000.00000  1000.00000    90.00000    90.00000    90.00000  Step:           8  Bead:       0 positions{angstrom}  cell{angstrom}
       O -3.13975e+00  1.06484e+00  3.54471e-01
       H -3.60450e+00  2.91986e-01  7.22335e-01
       H -3.17277e+00  1.16583e+00 -5.83061e-01
       H -2.77035e+00  1.71039e+00  9.19748e-01
4
# CELL(abcABC): 1000.00000  1000.00000  1000.00000    90.00000    90.00000    90.00000  Step:           9  Bead:       0 positions{angstrom}  cell{angstrom}
       O -3.13884e+00  1.06326e+00  3.54266e-01
       H -3.60229e+00  3.05560e-01  7.18954e-01
       H -3.16946e+00  1.16984e+00 -5.83255e-01
       H -2.79020e+00  1.71800e+00  9.26580e-01
4
# CELL(abcABC): 1000.00000  1000.00000  1000.00000    90.00000    90.00000    90.00000  Step:          10  Bead:       0 positions{angstrom}  cell{angstrom}
       O -3.13802e+00  1.06134e+00  3.54133e-01
       H -3.60000e+00  3.19361e-01  7.14435e-01
       H -3.16619e+00  1.17496e+00 -5.85641e-01
       H -2.80889e+00  1.72949e+00  9.35591e-01
4
# CELL(abcABC): 1000.00000  1000.00000  1000.00000    90.00000    90.00000    90.00000  Step:          11  Bead:       0 positions{angstrom}  cell{angstrom}
       O -3.13716e+00  1.05933e+00  3.54066e-01
       H -3.59843e+00  3.32495e-01  7.08865e-01
       H -3.16447e+00  1.18006e+00 -5.89462e-01
       H -2.82575e+00  1.74318e+00  9.46049e-01
4
# CELL(abcABC): 1000.00000  1000.00000  1000.00000    90.00000    90.00000    90.00000  Step:          12  Bead:       0 positions{angstrom}  cell{angstrom}
       O -3.13632e+00  1.05746e+00  3.53971e-01
       H -3.59754e+00  3.42393e-01  7.03927e-01
       H -3.16316e+00  1.18399e+00 -5.94674e-01
       H -2.84130e+00  1.75909e+00  9.57702e-01
4
# CELL(abcABC): 1000.00000  1000.00000  1000.00000    90.00000    90.00000    90.00000  Step:          13  Bead:       0 positions{angstrom}  cell{angstrom}
       O -3.13534e+00  1.05586e+00  3.53735e-01
       H -3.59944e+00  3.48446e-01  7.00815e-01
       H -3.16095e+00  1.18762e+00 -5.99500e-01
       H -2.85713e+00  1.77479e+00  9.69387e-01
4
# CELL(abcABC): 1000.00000  1000.00000  1000.00000    90.00000    90.00000    90.00000  Step:          14  Bead:       0 positions{angstrom}  cell{angstrom}
       O -3.13417e+00  1.05462e+00  3.53337e-01
       H -3.60335e+00  3.49099e-01  7.00040e-01
       H -3.15866e+00  1.19153e+00 -6.03309e-01
       H -2.87411e+00  1.78983e+00  9.80292e-01
4
# CELL(abcABC): 1000.00000  1000.00000  1000.00000    90.00000    90.00000    90.00000  Step:          15  Bead:       0 positions{angstrom}  cell{angstrom}
       O -3.13266e+00  1.05371e+00  3.52620e-01
       H -3.61258e+00  3.44325e-01  7.03248e-01
       H -3.15749e+00  1.19555e+00 -6.05380e-01
       H -2.89006e+00  1.80505e+00  9.90530e-01
4
# CELL(abcABC): 1000.00000  1000.00000  1000.00000    90.00000    90.00000    90.00000  Step:          16  Bead:       0 positions{angstrom}  cell{angstrom}
       O -3.13095e+00  1.05313e+00  3.51871e-01
       H -3.62334e+00  3.35640e-01  7.07270e-01
       H -3.15708e+00  1.20019e+00 -6.05605e-01
       H -2.90690e+00  1.81835e+00  9.98627e-01
4
# CELL(abcABC): 1000.00000  1000.00000  1000.00000    90.00000    90.00000    90.00000  Step:          17  Bead:       0 positions{angstrom}  cell{angstrom}
       O -3.12895e+00  1.05286e+00  3.51174e-01
       H -3.63483e+00  3.25659e-01  7.11755e-01
       H -3.15841e+00  1.20506e+00 -6.05015e-01
       H -2.92571e+00  1.82765e+00  1.00462e+00
4
# CELL(abcABC): 1000.00000  1000.00000  1000.00000    90.00000    90.00000    90.00000  Step:          18  Bead:       0 positions{angstrom}  cell{angstrom}
       O -3.12680e+00  1.05274e+00  3.50615e-01
       H -3.64760e+00  3.16544e-01  7.15728e-01
       H -3.15944e+00  1.20953e+00 -6.02837e-01
       H -2.94613e+00  1.83426e+00  1.00734e+00
4
# CELL(abcABC): 1000.00000  1000.00000  1000.00000    90.00000    90.00000    90.00000  Step:          19  Bead:       0 positions{angstrom}  cell{angstrom}
       O -3.12467e+00  1.05280e+00  3.50261e-01
       H -3.65913e+00  3.08923e-01  7.18631e-01
       H -3.16208e+00  1.21304e+00 -5.99960e-01
       H -2.96569e+00  1.83743e+00  1.00718e+00
4
# CELL(abcABC): 1000.00000  1000.00000  1000.00000    90.00000    90.00000    90.00000  Step:          20  Bead:       0 positions{angstrom}  cell{angstrom}
       O -3.12255e+00  1.05296e+00  3.50254e-01
       H -3.66882e+00  3.04579e-01  7.17944e-01
       H -3.16654e+00  1.21630e+00 -5.95845e-01
       H -2.98526e+00  1.83596e+00  1.00387e+00
4
# CELL(abcABC): 1000.00000  1000.00000  1000.00000    90.00000    90.00000    90.00000  Step:          21  Bead:       0 positions{angstrom}  cell{angstrom}
       O -3.12056e+00  1.05311e+00  3.50650e-01
       H -3.67659e+00  3.03273e-01  7.13488e-01
       H -3.17021e+00  1.21987e+00 -5.90241e-01
       H -3.00535e+00  1.83135e+00  9.96434e-01
4
# CELL(abcABC): 1000.00000  1000.00000  1000.00000    90.00000    90.00000    90.00000  Step:          22  Bead:       0 positions{angstrom}  cell{angstrom}
       O -3.11875e+00  1.05310e+00  3.51493e-01
       H -3.68286e+00  3.04948e-01  7.07243e-01
       H -3.17245e+00  1.22357e+00 -5.86298e-01
       H -3.02565e+00  1.82609e+00  9.85346e-01
4
# CELL(abcABC): 1000.00000  1000.00000  1000.00000    90.00000    90.00000    90.00000  Step:          23  Bead:       0 positions{angstrom}  cell{angstrom}
       O -3.11710e+00  1.05294e+00  3.52853e-01
       H -3.68627e+00  3.11043e-01  6.97763e-01
       H -3.17431e+00  1.22771e+00 -5.82365e-01
       H -3.04643e+00  1.81835e+00  9.69313e-01
4
# CELL(abcABC): 1000.00000  1000.00000  1000.00000    90.00000    90.00000    90.00000  Step:          24  Bead:       0 positions{angstrom}  cell{angstrom}
       O -3.11563e+00  1.05249e+00  3.54475e-01
       H -3.68668e+00  3.19618e-01  6.85841e-01
       H -3.17615e+00  1.23288e+00 -5.78832e-01
       H -3.06754e+00  1.81174e+00  9.51952e-01
4
# CELL(abcABC): 1000.00000  1000.00000  1000.00000    90.00000    90.00000    90.00000  Step:          25  Bead:       0 positions{angstrom}  cell{angstrom}
       O -3.11424e+00  1.05190e+00  3.56154e-01
       H -3.68531e+00  3.29877e-01  6.72879e-01
       H -3.17857e+00  1.23732e+00 -5.75883e-01
       H -3.08861e+00  1.80650e+00  9.35306e-01
4
# CELL(abcABC): 1000.00000  1000.00000  1000.00000    90.00000    90.00000    90.00000  Step:          26  Bead:       0 positions{angstrom}  cell{angstrom}
       O -3.11291e+00  1.05114e+00  3.57835e-01
       H -3.68291e+00  3.41051e-01  6.58018e-01
       H -3.18083e+00  1.24131e+00 -5.73935e-01
       H -3.10992e+00  1.80337e+00  9.21536e-01
4
# CELL(abcABC): 1000.00000  1000.00000  1000.00000    90.00000    90.00000    90.00000  Step:          27  Bead:       0 positions{angstrom}  cell{angstrom}
       O -3.11168e+00  1.05015e+00  3.59451e-01
       H -3.68072e+00  3.53356e-01  6.42036e-01
       H -3.18309e+00  1.24419e+00 -5.73041e-01
       H -3.12930e+00  1.80397e+00  9.10977e-01
4
# CELL(abcABC): 1000.00000  1000.00000  1000.00000    90.00000    90.00000    90.00000  Step:          28  Bead:       0 positions{angstrom}  cell{angstrom}
       O -3.11034e+00  1.04901e+00  3.60813e-01
       H -3.68088e+00  3.62664e-01  6.26259e-01
       H -3.18465e+00  1.24685e+00 -5.72433e-01
       H -3.14894e+00  1.81013e+00  9.04520e-01
4
# CELL(abcABC): 1000.00000  1000.00000  1000.00000    90.00000    90.00000    90.00000  Step:          29  Bead:       0 positions{angstrom}  cell{angstrom}
       O -3.10889e+00  1.04777e+00  3.61952e-01
       H -3.68271e+00  3.69464e-01  6.10051e-01
       H -3.18691e+00  1.24905e+00 -5.72196e-01
       H -3.16777e+00  1.82069e+00  9.02426e-01
4
# CELL(abcABC): 1000.00000  1000.00000  1000.00000    90.00000    90.00000    90.00000  Step:          30  Bead:       0 positions{angstrom}  cell{angstrom}
       O -3.10728e+00  1.04650e+00  3.62807e-01
       H -3.68739e+00  3.73386e-01  5.96082e-01
       H -3.18908e+00  1.25081e+00 -5.71731e-01
       H -3.18650e+00  1.83519e+00  9.02354e-01
4
# CELL(abcABC): 1000.00000  1000.00000  1000.00000    90.00000    90.00000    90.00000  Step:          31  Bead:       0 positions{angstrom}  cell{angstrom}
       O -3.10563e+00  1.04529e+00  3.63507e-01
       H -3.69411e+00  3.73121e-01  5.84043e-01
       H -3.19018e+00  1.25329e+00 -5.71986e-01
       H -3.20492e+00  1.85213e+00  9.03539e-01
4
# CELL(abcABC): 1000.00000  1000.00000  1000.00000    90.00000    90.00000    90.00000  Step:          32  Bead:       0 positions{angstrom}  cell{angstrom}
       O -3.10380e+00  1.04445e+00  3.63862e-01
       H -3.70519e+00  3.66806e-01  5.74357e-01
       H -3.19020e+00  1.25664e+00 -5.70939e-01
       H -3.22278e+00  1.86856e+00  9.06531e-01
4
# CELL(abcABC): 1000.00000  1000.00000  1000.00000    90.00000    90.00000    90.00000  Step:          33  Bead:       0 positions{angstrom}  cell{angstrom}
       O -3.10190e+00  1.04402e+00  3.64023e-01
       H -3.71924e+00  3.56758e-01  5.67283e-01
       H -3.18925e+00  1.25862e+00 -5.69301e-01
       H -3.23986e+00  1.88343e+00  9.09418e-01
4
# CELL(abcABC): 1000.00000  1000.00000  1000.00000    90.00000    90.00000    90.00000  Step:          34  Bead:       0 positions{angstrom}  cell{angstrom}
       O -3.09992e+00  1.04389e+00  3.64284e-01
       H -3.73372e+00  3.45135e-01  5.60892e-01
       H -3.18945e+00  1.25974e+00 -5.67361e-01
       H -3.25664e+00  1.89589e+00  9.09722e-01
4
# CELL(abcABC): 1000.00000  1000.00000  1000.00000    90.00000    90.00000    90.00000  Step:          35  Bead:       0 positions{angstrom}  cell{angstrom}
       O -3.09814e+00  1.04396e+00  3.64630e-01
       H -3.74578e+00  3.33702e-01  5.54095e-01
       H -3.19019e+00  1.26147e+00 -5.64966e-01
       H -3.27210e+00  1.90461e+00  9.08642e-01
4
# CELL(abcABC): 1000.00000  1000.00000  1000.00000    90.00000    90.00000    90.00000  Step:          36  Bead:       0 positions{angstrom}  cell{angstrom}
       O -3.09666e+00  1.04410e+00  3.65134e-01
       H -3.75558e+00  3.23891e-01  5.46738e-01
       H -3.19006e+00  1.26425e+00 -5.63852e-01
       H -3.28597e+00  1.90933e+00  9.06883e-01
4
# CELL(abcABC): 1000.00000  1000.00000  1000.00000    90.00000    90.00000    90.00000  Step:          37  Bead:       0 positions{angstrom}  cell{angstrom}
       O -3.09558e+00  1.04443e+00  3.65690e-01
       H -3.76176e+00  3.17502e-01  5.40867e-01
       H -3.18861e+00  1.26620e+00 -5.63713e-01
       H -3.29840e+00  1.90862e+00  9.03791e-01
4
# CELL(abcABC): 1000.00000  1000.00000  1000.00000    90.00000    90.00000    90.00000  Step:          38  Bead:       0 positions{angstrom}  cell{angstrom}
       O -3.09473e+00  1.04484e+00  3.66569e-01
       H -3.76534e+00  3.14081e-01  5.33422e-01
       H -3.18611e+00  1.26676e+00 -5.64293e-01
       H -3.31065e+00  1.90497e+00  8.97863e-01
4
# CELL(abcABC): 1000.00000  1000.00000  1000.00000    90.00000    90.00000    90.00000  Step:          39  Bead:       0 positions{angstrom}  cell{angstrom}
       O -3.09449e+00  1.04543e+00  3.67476e-01
       H -3.76432e+00  3.13508e-01  5.26125e-01
       H -3.18203e+00  1.26582e+00 -5.64274e-01
       H -3.31971e+00  1.89707e+00  8.90746e-01
4
# CELL(abcABC): 1000.00000  1000.00000  1000.00000    90.00000    90.00000    90.00000  Step:          40  Bead:       0 positions{angstrom}  cell{angstrom}
       O -3.09471e+00  1.04601e+00  3.68289e-01
       H -3.75944e+00  3.16417e-01  5.19559e-01
       H -3.17637e+00  1.26467e+00 -5.62879e-01
       H -3.32672e+00  1.88615e+00  8.83010e-01
4
# CELL(abcABC): 1000.00000  1000.00000  1000.00000    90.00000    90.00000    90.00000  Step:          41  Bead:       0 positions{angstrom}  cell{angstrom}
       O -3.09532e+00  1.04656e+00  3.69096e-01
       H -3.75145e+00  3.22926e-01  5.12538e-01
       H -3.16868e+00  1.26362e+00 -5.61552e-01
       H -3.33261e+00  1.87194e+00  8.75887e-01
4
# CELL(abcABC): 1000.00000  1000.00000  1000.00000    90.00000    90.00000    90.00000  Step:          42  Bead:       0 positions{angstrom}  cell{angstrom}
       O -3.09638e+00  1.04723e+00  3.69951e-01
       H -3.73938e+00  3.29550e-01  5.05407e-01
       H -3.15927e+00  1.26240e+00 -5.60375e-01
       H -3.33727e+00  1.85594e+00  8.68277e-01
4
# CELL(abcABC): 1000.00000  1000.00000  1000.00000    90.00000    90.00000    90.00000  Step:          43  Bead:       0 positions{angstrom}  cell{angstrom}
       O -3.09767e+00  1.04781e+00  3.70753e-01
       H -3.72599e+00  3.37730e-01  4.98427e-01
       H -3.14822e+00  1.26238e+00 -5.59611e-01
       H -3.34127e+00  1.83858e+00  8.61763e-01
4
# CELL(abcABC): 1000.00000  1000.00000  1000.00000    90.00000    90.00000    90.00000  Step:          44  Bead:       0 positions{angstrom}  cell{angstrom}
       O -3.09906e+00  1.04839e+00  3.71415e-01
       H -3.71216e+00  3.44404e-01  4.91626e-01
       H -3.13559e+00  1.26188e+00 -5.60016e-01
       H -3.34572e+00  1.82306e+00  8.58456e-01
4
# CELL(abcABC): 1000.00000  1000.00000  1000.00000    90.00000    90.00000    90.00000  Step:          45  Bead:       0 positions{angstrom}  cell{angstrom}
       O -3.10035e+00  1.04899e+00  3.71925e-01
       H -3.70003e+00  3.48717e-01  4.85231e-01
       H -3.12080e+00  1.26073e+00 -5.61846e-01
       H -3.35212e+00  1.81035e+00  8.58584e-01
4
# CELL(abcABC): 1000.00000  1000.00000  1000.00000    90.00000    90.00000    90.00000  Step:          46  Bead:       0 positions{angstrom}  cell{angstrom}
       O -3.10158e+00  1.04963e+00  3.72196e-01
       H -3.69031e+00  3.49686e-01  4.79647e-01
       H -3.10471e+00  1.25874e+00 -5.64530e-01
       H -3.35836e+00  1.80127e+00  8.62543e-01
4
# CELL(abcABC): 1000.00000  1000.00000  1000.00000    90.00000    90.00000    90.00000  Step:          47  Bead:       0 positions{angstrom}  cell{angstrom}
       O -3.10262e+00  1.05020e+00  3.72284e-01
       H -3.68361e+00  3.45415e-01  4.75631e-01
       H -3.08715e+00  1.25697e+00 -5.68139e-01
       H -3.36610e+00  1.79834e+00  8.68784e-01
4
# CELL(abcABC): 1000.00000  1000.00000  1000.00000    90.00000    90.00000    90.00000  Step:          48  Bead:       0 positions{angstrom}  cell{angstrom}
       O -3.10346e+00  1.05091e+00  3.72048e-01
       H -3.67959e+00  3.34918e-01  4.73142e-01
       H -3.06841e+00  1.25579e+00 -5.72101e-01
       H -3.37556e+00  1.79865e+00  8.78984e-01
4
# CELL(abcABC): 1000.00000  1000.00000  1000.00000    90.00000    90.00000    90.00000  Step:          49  Bead:       0 positions{angstrom}  cell{angstrom}
       O -3.10420e+00  1.05170e+00  3.71410e-01
       H -3.67799e+00  3.19451e-01  4.72210e-01
       H -3.04750e+00  1.25425e+00 -5.75060e-01
       H -3.38635e+00  1.80318e+00  8.93001e-01
4
# CELL(abcABC): 1000.00000  1000.00000  1000.00000    90.00000    90.00000    90.00000  Step:          50  Bead:       0 positions{angstrom}  cell{angstrom}
       O -3.10471e+00  1.05262e+00  3.70647e-01
       H -3.67808e+00  3.01024e-01  4.71602e-01
       H -3.02756e+00  1.25188e+00 -5.76676e-01
       H -3.39812e+00  1.80942e+00  9.07332e-01
4
# CELL(abcABC): 1000.00000  1000.00000  1000.00000    90.00000    90.00000    90.00000  Step:          51  Bead:       0 positions{angstrom}  cell{angstrom}
       O -3.10526e+00  1.05356e+00  3.69755e-01
       H -3.67858e+00  2.80882e-01  4.70780e-01
       H -3.00749e+00  1.24973e+00 -5.76985e-01
       H -3.40891e+00  1.81677e+00  9.22625e-01
4
# CELL(abcABC): 1000.00000  1000.00000  1000.00000    90.00000    90.00000    90.00000  Step:          52  Bead:       0 positions{angstrom}  cell{angstrom}
       O -3.10592e+00  1.05459e+00  3.68915e-01
       H -3.67829e+00  2.61042e-01  4.69840e-01
       H -2.98750e+00  1.24697e+00 -5.76908e-01
       H -3.41873e+00  1.82297e+00  9.36811e-01
4
# CELL(abcABC): 1000.00000  1000.00000  1000.00000    90.00000    90.00000    90.00000  Step:          53  Bead:       0 positions{angstrom}  cell{angstrom}
       O -3.10680e+00  1.05555e+00  3.68054e-01
       H -3.67523e+00  2.43859e-01  4.67579e-01
       H -2.96785e+00  1.24566e+00 -5.74604e-01
       H -3.42748e+00  1.82618e+00  9.50446e-01
4
# CELL(abcABC): 1000.00000  1000.00000  1000.00000    90.00000    90.00000    90.00000  Step:          54  Bead:       0 positions{angstrom}  cell{angstrom}
       O -3.10791e+00  1.05653e+00  3.66993e-01
       H -3.66938e+00  2.29076e-01  4.65824e-01
       H -2.94884e+00  1.24520e+00 -5.69990e-01
       H -3.43475e+00  1.82592e+00  9.64415e-01
4
# CELL(abcABC): 1000.00000  1000.00000  1000.00000    90.00000    90.00000    90.00000  Step:          55  Bead:       0 positions{angstrom}  cell{angstrom}
       O -3.10935e+00  1.05743e+00  3.66014e-01
       H -3.66085e+00  2.18530e-01  4.64163e-01
       H -2.93005e+00  1.24511e+00 -5.63436e-01
       H -3.43920e+00  1.82230e+00  9.75073e-01
4
# CELL(abcABC): 1000.00000  1000.00000  1000.00000    90.00000    90.00000    90.00000  Step:          56  Bead:       0 positions{angstrom}  cell{angstrom}
       O -3.11116e+00  1.05817e+00  3.65192e-01
       H -3.64676e+00  2.12725e-01  4.62370e-01
       H -2.91180e+00  1.24515e+00 -5.57142e-01
       H -3.44275e+00  1.81626e+00  9.83609e-01
4
# CELL(abcABC): 1000.00000  1000.00000  1000.00000    90.00000    90.00000    90.00000  Step:          57  Bead:       0 positions{angstrom}  cell{angstrom}
       O -3.11327e+00  1.05876e+00  3.64510e-01
       H -3.62786e+00  2.11807e-01  4.60392e-01
       H -2.89499e+00  1.24521e+00 -5.49353e-01
       H -3.44508e+00  1.80781e+00  9.88632e-01
4
# CELL(abcABC): 1000.00000  1000.00000  1000.00000    90.00000    90.00000    90.00000  Step:          58  Bead:       0 positions{angstrom}  cell{angstrom}
       O -3.11571e+00  1.05930e+00  3.64040e-01
       H -3.60519e+00  2.13693e-01  4.57659e-01
       H -2.87808e+00  1.24583e+00 -5.40858e-01
       H -3.44583e+00  1.79676e+00  9.90325e-01
4
# CELL(abcABC): 1000.00000  1000.00000  1000.00000    90.00000    90.00000    90.00000  Step:          59  Bead:       0 positions{angstrom}  cell{angstrom}
       O -3.11844e+00  1.05974e+00  3.63670e-01
       H -3.57968e+00  2.18010e-01  4.54606e-01
       H -2.86096e+00  1.24761e+00 -5.31093e-01
       H -3.44522e+00  1.78363e+00  9.89499e-01
4
# CELL(abcABC): 1000.00000  1000.00000  1000.00000    90.00000    90.00000    90.00000  Step:          60  Bead:       0 positions{angstrom}  cell{angstrom}
       O -3.12136e+00  1.06025e+00  3.63548e-01
       H -3.55431e+00  2.22522e-01  4.51450e-01
       H -2.84291e+00  1.24951e+00 -5.23659e-01
       H -3.44224e+00  1.76913e+00  9.87144e-01
4
# CELL(abcABC): 1000.00000  1000.00000  1000.00000    90.00000    90.00000    90.00000  Step:          61  Bead:       0 positions{angstrom}  cell{angstrom}
       O -3.12446e+00  1.06089e+00  3.63604e-01
       H -3.52826e+00  2.25100e-01  4.48116e-01
       H -2.82334e+00  1.25190e+00 -5.18317e-01
       H -3.43867e+00  1.75398e+00  9.84261e-01
4
# CELL(abcABC): 1000.00000  1000.00000  1000.00000    90.00000    90.00000    90.00000  Step:          62  Bead:       0 positions{angstrom}  cell{angstrom}
       O -3.12747e+00  1.06178e+00  3.63845e-01
       H -3.50417e+00  2.23470e-01  4.44678e-01
       H -2.80475e+00  1.25441e+00 -5.13930e-01
       H -3.43354e+00  1.73902e+00  9.79474e-01
4
# CELL(abcABC): 1000.00000  1000.00000  1000.00000    90.00000    90.00000    90.00000  Step:          63  Bead:       0 positions{angstrom}  cell{angstrom}
       O -3.13032e+00  1.06274e+00  3.63871e-01
       H -3.48156e+00  2.18109e-01  4.42280e-01
       H -2.78649e+00  1.25663e+00 -5.09677e-01
       H -3.42917e+00  1.72694e+00  9.77210e-01
4
# CELL(abcABC): 1000.00000  1000.00000  1000.00000    90.00000    90.00000    90.00000  Step:          64  Bead:       0 positions{angstrom}  cell{angstrom}
       O -3.13304e+00  1.06385e+00  3.63689e-01
       H -3.45977e+00  2.07739e-01  4.41601e-01
       H -2.76812e+00  1.25897e+00 -5.04864e-01
       H -3.42625e+00  1.71735e+00  9.75972e-01
4
# CELL(abcABC): 1000.00000  1000.00000  1000.00000    90.00000    90.00000    90.00000  Step:          65  Bead:       0 positions{angstrom}  cell{angstrom}
       O -3.13555e+00  1.06498e+00  3.63274e-01
       H -3.44067e+00  1.93074e-01  4.40633e-01
       H -2.74954e+00  1.26283e+00 -4.99235e-01
       H -3.42400e+00  1.71010e+00  9.77893e-01
4
# CELL(abcABC): 1000.00000  1000.00000  1000.00000    90.00000    90.00000    90.00000  Step:          66  Bead:       0 positions{angstrom}  cell{angstrom}
       O -3.13788e+00  1.06600e+00  3.62452e-01
       H -3.42313e+00  1.77390e-01  4.41102e-01
       H -2.73145e+00  1.26546e+00 -4.91912e-01
       H -3.42266e+00  1.70706e+00  9.83144e-01
4
# CELL(abcABC): 1000.00000  1000.00000  1000.00000    90.00000    90.00000    90.00000  Step:          67  Bead:       0 positions{angstrom}  cell{angstrom}
       O -3.13996e+00  1.06697e+00  3.61300e-01
       H -3.40633e+00  1.58894e-01  4.41429e-01
       H -2.71357e+00  1.26846e+00 -4.82509e-01
       H -3.42436e+00  1.70714e+00  9.91701e-01
4
# CELL(abcABC): 1000.00000  1000.00000  1000.00000    90.00000    90.00000    90.00000  Step:          68  Bead:       0 positions{angstrom}  cell{angstrom}
       O -3.14192e+00  1.06769e+00  3.60006e-01
       H -3.38939e+00  1.40083e-01  4.41976e-01
       H -2.69606e+00  1.27190e+00 -4.73170e-01
       H -3.42762e+00  1.71105e+00  1.00236e+00
4
# CELL(abcABC): 1000.00000  1000.00000  1000.00000    90.00000    90.00000    90.00000  Step:          69  Bead:       0 positions{angstrom}  cell{angstrom}
       O -3.14373e+00  1.06827e+00  3.58307e-01
       H -3.37286e+00  1.21438e-01  4.44519e-01
       H -2.67996e+00  1.27585e+00 -4.61424e-01
       H -3.43159e+00  1.71656e+00  1.01503e+00
4
# CELL(abcABC): 1000.00000  1000.00000  1000.00000    90.00000    90.00000    90.00000  Step:          70  Bead:       0 positions{angstrom}  cell{angstrom}
       O -3.14565e+00  1.06841e+00  3.56482e-01
       H -3.35562e+00  1.06662e-01  4.46319e-01
       H -2.66422e+00  1.28110e+00 -4.48752e-01
       H -3.43403e+00  1.72379e+00  1.02953e+00
4
# CELL(abcABC): 1000.00000  1000.00000  1000.00000    90.00000    90.00000    90.00000  Step:          71  Bead:       0 positions{angstrom}  cell{angstrom}
       O -3.14755e+00  1.06834e+00  3.54691e-01
       H -3.33857e+00  9.50872e-02  4.46776e-01
       H -2.64933e+00  1.28644e+00 -4.35623e-01
       H -3.43592e+00  1.73124e+00  1.04437e+00
4
# CELL(abcABC): 1000.00000  1000.00000  1000.00000    90.00000    90.00000    90.00000  Step:          72  Bead:       0 positions{angstrom}  cell{angstrom}
       O -3.14954e+00  1.06788e+00  3.52904e-01
       H -3.32060e+00  8.87274e-02  4.47472e-01
       H -2.63447e+00  1.29263e+00 -4.21154e-01
       H -3.43707e+00  1.73870e+00  1.05758e+00
4
# CELL(abcABC): 1000.00000  1000.00000  1000.00000    90.00000    90.00000    90.00000  Step:          73  Bead:       0 positions{angstrom}  cell{angstrom}
       O -3.15159e+00  1.06721e+00  3.51314e-01
       H -3.30228e+00  8.72868e-02  4.47957e-01
       H -2.61966e+00  1.29993e+00 -4.06379e-01
       H -3.43767e+00  1.74346e+00  1.06756e+00
4
# CELL(abcABC): 1000.00000  1000.00000  1000.00000    90.00000    90.00000    90.00000  Step:          74  Bead:       0 positions{angstrom}  cell{angstrom}
       O -3.15378e+00  1.06630e+00  3.50057e-01
       H -3.28327e+00  9.06656e-02  4.47107e-01
       H -2.60479e+00  1.30798e+00 -3.92712e-01
       H -3.43679e+00  1.74650e+00  1.07469e+00
4
# CELL(abcABC): 1000.00000  1000.00000  1000.00000    90.00000    90.00000    90.00000  Step:          75  Bead:       0 positions{angstrom}  cell{angstrom}
       O -3.15591e+00  1.06532e+00  3.48991e-01
       H -3.26459e+00  9.69712e-02  4.45793e-01
       H -2.59051e+00  1.31607e+00 -3.78224e-01
       H -3.43599e+00  1.74760e+00  1.07844e+00
4
# CELL(abcABC): 1000.00000  1000.00000  1000.00000    90.00000    90.00000    90.00000  Step:          76  Bead:       0 positions{angstrom}  cell{angstrom}
       O -3.15819e+00  1.06421e+00  3.47988e-01
       H -3.24514e+00  1.06298e-01  4.45840e-01
       H -2.57643e+00  1.32477e+00 -3.63598e-01
       H -3.43328e+00  1.74721e+00  1.07969e+00
4
# CELL(abcABC): 1000.00000  1000.00000  1000.00000    90.00000    90.00000    90.00000  Step:          77  Bead:       0 positions{angstrom}  cell{angstrom}
       O -3.16044e+00  1.06317e+00  3.47111e-01
       H -3.22605e+00  1.17784e-01  4.46426e-01
       H -2.56299e+00  1.33419e+00 -3.48258e-01
       H -3.43016e+00  1.74285e+00  1.07768e+00
4
# CELL(abcABC): 1000.00000  1000.00000  1000.00000    90.00000    90.00000    90.00000  Step:          78  Bead:       0 positions{angstrom}  cell{angstrom}
       O -3.16264e+00  1.06236e+00  3.46523e-01
       H -3.20860e+00  1.28001e-01  4.46883e-01
       H -2.54895e+00  1.34451e+00 -3.33035e-01
       H -3.42664e+00  1.73518e+00  1.07134e+00
4
# CELL(abcABC): 1000.00000  1000.00000  1000.00000    90.00000    90.00000    90.00000  Step:          79  Bead:       0 positions{angstrom}  cell{angstrom}
       O -3.16489e+00  1.06197e+00  3.45966e-01
       H -3.19243e+00  1.36429e-01  4.49678e-01
       H -2.53397e+00  1.35404e+00 -3.17733e-01
       H -3.42217e+00  1.72337e+00  1.06208e+00
4
# CELL(abcABC): 1000.00000  1000.00000  1000.00000    90.00000    90.00000    90.00000  Step:          80  Bead:       0 positions{angstrom}  cell{angstrom}
       O -3.16716e+00  1.06199e+00  3.45281e-01
       H -3.17654e+00  1.41453e-01  4.53785e-01
       H -2.51909e+00  1.36313e+00 -3.00887e-01
       H -3.41683e+00  1.70899e+00  1.05200e+00
4
# CELL(abcABC): 1000.00000  1000.00000  1000.00000    90.00000    90.00000    90.00000  Step:          81  Bead:       0 positions{angstrom}  cell{angstrom}
       O -3.16940e+00  1.06225e+00  3.44545e-01
       H -3.15920e+00  1.42948e-01  4.58729e-01
       H -2.50543e+00  1.37376e+00 -2.83230e-01
       H -3.41228e+00  1.69265e+00  1.04109e+00
4
# CELL(abcABC): 1000.00000  1000.00000  1000.00000    90.00000    90.00000    90.00000  Step:          82  Bead:       0 positions{angstrom}  cell{angstrom}
       O -3.17150e+00  1.06297e+00  3.43498e-01
       H -3.14175e+00  1.39441e-01  4.65953e-01
       H -2.49220e+00  1.38276e+00 -2.64948e-01
       H -3.40970e+00  1.67574e+00  1.03220e+00
4
# CELL(abcABC): 1000.00000  1000.00000  1000.00000    90.00000    90.00000    90.00000  Step:          83  Bead:       0 positions{angstrom}  cell{angstrom}
       O -3.17344e+00  1.06380e+00  3.42148e-01
       H -3.12478e+00  1.32900e-01  4.75023e-01
       H -2.47988e+00  1.39167e+00 -2.45995e-01
       H -3.40807e+00  1.66018e+00  1.02560e+00
4
# CELL(abcABC): 1000.00000  1000.00000  1000.00000    90.00000    90.00000    90.00000  Step:          84  Bead:       0 positions{angstrom}  cell{angstrom}
       O -3.17515e+00  1.06464e+00  3.40457e-01
       H -3.10727e+00  1.23645e-01  4.84261e-01
       H -2.46952e+00  1.40031e+00 -2.26599e-01
       H -3.40887e+00  1.64746e+00  1.02381e+00
4
# CELL(abcABC): 1000.00000  1000.00000  1000.00000    90.00000    90.00000    90.00000  Step:          85  Bead:       0 positions{angstrom}  cell{angstrom}