4
# CELL(abcABC): 1000.00000  1000.00000  1000.00000    90.00000    90.00000    90.00000  Step:         375  Bead:       0 positions{angstrom}  cell{angstrom}
       O -3.13857e+00  1.09766e+00  3.39089e-01
       H -2.40868e+00  5.49445e-01  9.72111e-02
       H -3.15284e+00  1.07008e+00  1.27751e+00
       H -4.00475e+00  1.02761e+00 -7.15555e-02
