ITEM: TIMESTEP
25000
ITEM: NUMBER OF ATOMS
11115
ITEM: BOX BOUNDS pp pp pp
-2.4500000000000000e+01 2.4500000000000000e+01
-2.4500000000000000e+01 2.4500000000000000e+01
-2.4500000000000000e+01 2.4500000000000000e+01
ITEM: ATOMS id type x y z vx vy vz ix iy iz
243 5 -23.2174 -18.657 -18.1328 -0.0113162 0.00214806 -0.0268596 0 0 0
66 5 -22.8464 -20.7041 -19.0088 0.00214691 -0.0222313 -0.00286081 0 0 0
10640 17 -24.2117 -22.9268 -20.309 -0.00132713 -0.000661563 0.000428569 0 1 1
67 5 -22.9197 -22.0369 -19.5902 -0.00862898 -0.0028785 -0.0169462 0 0 0
65 17 -22.2627 -21.4765 -19.13 -0.00207074 0.000723543 -0.000475176 0 0 0
364 5 -19.7926 -21.7308 -22.0648 0.0188938 -0.004264 -0.020158 0 0 0
225 5 -20.5084 -18.0077 -21.3296 0.00698828 -0.00235306 0.0135837 0 0 0
362 17 -19.9023 -21.1405 -22.8884 0.00536745 -0.00018369 0.00758891 0 0 0
363 5 -20.1001 -20.2906 -22.5353 -0.00673393 0.00509514 -0.00503932 0 0 0
210 5 -20.0781 -23.1834 -19.9487 -0.0163537 -0.00378261 0.0400085 0 0 0
3536 17 -22.8678 -20.8103 -23.6387 0.00632371 -0.000268458 0.00305523 0 1 0
10642 5 -24.1394 -23.5413 -21.0424 -0.015288 0.0194704 0.0173342 0 1 1
3537 5 -22.064 -21.1205 -23.2018 -0.0162796 -0.0145526 0.0119765 0 1 0
1413 5 -21.6283 -18.9206 -16.9293 0.00124856 -0.00460591 -0.017286 1 0 0
211 5 -20.8179 -21.8229 -19.9554 -0.00717991 -0.02713 0.00948091 0 0 0
209 17 -20.0585 -22.293 -20.4235 -0.00379945 0.00184364 0.000766267 0 0 0
244 5 -23.2113 -17.3824 -18.8158 -0.00451275 0.0464583 0.0355702 0 0 0
242 17 -22.5755 -18.04 -18.4781 -0.00490529 0.00311942 0.00162161 0 0 0
224 17 -20.4275 -18.9477 -21.2476 -0.0014163 -0.00218375 -0.0049499 0 0 0
226 5 -21.1892 -19.0028 -20.6687 -0.0224027 -0.00839485 0.0141466 0 0 0
1494 5 -22.298 -22.6946 -17.8172 0.0228777 -0.0239372 0.00179592 1 0 0
1493 17 -21.8555 -23.2719 -17.147 -0.00545007 6.96492e-05 -0.000419104 1 0 0
1495 5 -22.6674 -23.4224 -16.6398 -0.0002011 -0.0243889 0.015941 1 0 0
1571 17 -24.4627 -19.9752 -18.567 0.00178749 -0.000765023 0.00329006 1 0 0
3553 5 -17.7806 -18.1482 -20.708 -0.0164413 0.0154574 -0.0102517 0 1 0
3552 5 -18.6485 -19.3337 -20.8873 0.00376916 -0.0407708 -0.0243011 0 1 0
3551 17 -17.7162 -19.1383 -20.7722 -0.00412222 -0.00294379 0.0033941 0 1 0
1475 17 -21.0603 -16.4636 -20.4906 0.00292393 -0.00174092 -0.000786213 1 0 0
1477 5 -21.2583 -16.6456 -19.6105 0.00630469 -0.0186315 -0.00582263 1 0 0
1417 5 -21.3644 -16.5731 -22.4749 -0.0399978 0.0367212 0.0146194 1 0 0
370 5 -20.1663 -24.4638 -17.9628 -0.0219139 0.0234568 0.00163322 0 0 0
3465 5 -18.291 -23.7962 -20.5824 -0.0184818 -0.00910443 -0.00702028 0 1 0
3379 5 -20.3267 -22.1416 -16.7859 -0.0066735 0.0058107 -0.00102999 0 1 0
3378 5 -18.8934 -21.7167 -16.8771 -0.00781985 -0.00854447 0.00698495 0 1 0
3377 17 -19.763 -21.2819 -16.6722 0.00332822 0.000575512 0.00249287 0 1 0
1415 17 -21.725 -16.4584 -23.3396 0.0041998 -0.00322923 0.00772554 1 0 0
8589 5 -24.229 -20.0025 -21.9193 -0.0281119 0.000142958 -0.0085127 0 0 1
3464 17 -17.5736 -24.4183 -20.7948 -0.00323105 -0.0027512 0.00196843 0 1 0
3434 17 -18.8359 -23.9911 -24.186 0.00173801 -0.00439909 -0.00162623 0 1 0
9409 5 -23.7495 -17.481 -23.0379 -0.013038 0.025127 0.010271 1 0 1
3435 5 -18.3599 -23.2625 -23.6207 0.0351672 -0.00671884 0.00838532 0 1 0
3538 5 -23.3272 -21.6556 -23.7114 -0.00925657 -0.00969601 0.0453618 0 1 0
562 5 -18.8028 -20.6444 -24.2942 0.0144309 -0.020217 0.0116326 0 0 0
3408 5 -16.7092 -22.9714 -17.8814 0.0165114 -0.00974133 -0.0043528 0 1 0
545 17 -12.3831 -20.5629 -21.1256 -0.00477512 -0.00900687 0.00756725 0 0 0
546 5 -13.247 -20.7689 -20.7763 -0.0272792 -0.00119202 0.0174909 0 0 0
547 5 -11.8453 -21.2404 -20.8424 -0.0108969 -0.014895 -0.0140906 0 0 0
3386 17 -11.8228 -17.7833 -21.937 -0.00446594 0.00713227 -0.000206188 0 1 0
3388 5 -11.9958 -18.7304 -21.6533 0.0299685 -0.0142519 0.0411443 0 1 0
3387 5 -11.1686 -17.5038 -21.3466 0.0169028 -0.00403972 0.000547168 0 1 0
3546 5 -16.0285 -20.7615 -21.8598 0.00636475 0.00112773 0.0222046 0 1 0
3324 5 -16.6369 -16.5716 -19.6735 -0.0139896 -0.0104488 -0.0260188 0 1 0
3598 5 -10.9682 -17.7271 -18.4283 -0.0122861 0.0127877 0.0165797 0 1 0
626 17 -14.9165 -21.6015 -19.7309 -0.00139756 0.0034046 0.00389977 0 0 0
628 5 -15.5958 -22.2432 -19.5024 0.00901205 0.00845227 -0.0160511 0 0 0
627 5 -15.108 -20.9691 -19.0292 -0.0229199 0.0248776 0.0179234 0 0 0
129 5 -16.4814 -19.203 -19.4926 -0.00590173 0.000155662 -0.00826078 0 0 0
130 5 -15.1277 -18.7314 -18.9859 0.0077599 0.0299668 -0.0178988 0 0 0
128 17 -15.8926 -19.307 -18.7209 -0.000106394 0.00650527 -0.010656 0 0 0
3596 17 -11.7678 -17.1235 -18.3178 0.00246658 -0.00462471 -0.00134227 0 1 0
238 5 -10.7443 -22.9781 -16.5732 -0.00466803 -0.0224761 0.000490945 0 0 0
8777 17 -14.0781 -22.8527 -23.2406 0.00309011 0.00236758 0.00803536 0 0 1
631 5 -13.6757 -22.8236 -20.4275 0.00469377 -0.00692295 0.00482279 0 0 0
3597 5 -11.6267 -16.5582 -17.536 -0.0109581 -0.00656826 -0.0101372 0 1 0
3469 5 -16.8004 -20.6529 -17.7668 -0.0125134 -0.0129866 -0.0112532 0 1 0
3467 17 -16.8822 -21.4539 -17.2682 -0.00147297 0.00392192 -0.00055963 0 1 0
8778 5 -14.8519 -22.3652 -22.9092 0.0189485 -0.010334 -0.00569766 0 0 1
3545 17 -16.0057 -20.9969 -22.739 -0.00416215 -0.00420645 0.00871705 0 1 0
630 5 -13.3327 -23.4037 -21.7773 0.0245214 0.0285205 -0.025222 0 0 0
3409 5 -16.4766 -24.3934 -17.6115 -0.00111888 -0.00879498 -0.0028734 0 1 0
10630 5 -12.2415 -22.9951 -23.6817 0.021508 -0.00208906 0.00656934 0 1 1
212 17 -14.2958 -17.4622 -19.8812 0.00558538 -0.00284401 -0.00502943 0 0 0
214 5 -14.2639 -17.2018 -20.8338 0.00330423 -1.65711e-05 0.00660798 0 0 0
213 5 -13.3792 -17.1596 -19.6333 0.0135588 -0.031139 0.00706856 0 0 0
1181 17 -13.8543 -18.2285 -16.383 0.00216846 -0.0001239 0.00559734 0 0 0
1182 5 -13.3623 -17.8017 -17.0864 -0.00175466 0.00549325 -0.00266296 0 0 0
3468 5 -16.5625 -21.0896 -16.4314 0.0238139 -0.00419351 -0.0235676 0 1 0
3407 17 -16.5673 -23.795 -18.3364 -0.00226537 -0.00535859 0.00335489 0 1 0
3547 5 -16.7775 -20.5427 -23.0172 -0.0153051 0.0238018 -0.000794935 0 1 0
8559 5 -12.213 -17.5953 -23.7579 -0.00853313 -0.00370099 0.00492655 0 0 1
8580 5 -14.2579 -20.5583 -24.2713 -0.00196133 -0.0265149 -0.0092797 0 0 1
629 17 -13.0364 -23.4456 -20.8394 -0.00222633 -2.88259e-05 0.00566746 0 0 0
10628 17 -11.3877 -23.1047 -24.2211 -0.00167363 -0.00216507 0.00393226 0 1 1
10540 5 -10.9373 -23.4919 -21.0275 0.0290273 -0.0089485 0.00710549 0 1 1
8779 5 -14.4271 -23.1729 -24.1279 -0.0170334 -0.00282299 -0.00573087 0 0 1
3715 5 -3.82726 -24.0548 -18.9973 0.00368605 0.0167178 0.00251739 0 1 0
236 17 -10.3098 -22.1985 -16.3506 -0.00711536 -0.00331553 -0.00621083 0 0 0
237 5 -10.1359 -21.9066 -17.2716 -0.0191102 0.0118369 0.00869667 0 0 0
273 5 -9.91632 -19.659 -19.3516 0.0121167 -0.0212407 -0.00159216 0 0 0
615 5 -9.87939 -21.9562 -19.7718 -0.00277149 -0.00724538 -0.00139187 0 0 0
74 17 -7.68379 -18.6744 -17.0351 0.00409149 0.0014124 -0.0012945 0 0 0
272 17 -9.90895 -18.6574 -19.2735 -0.00664399 -0.00233155 -0.00401794 0 0 0
75 5 -7.92173 -17.782 -17.2682 -0.00973236 -0.00225954 0.00979689 0 0 0
76 5 -8.2079 -19.3197 -17.567 -0.00775971 -0.00156412 -0.0172388 0 0 0
614 17 -9.63185 -21.4576 -18.9942 -0.000801867 -0.000626866 -0.00533399 0 0 0
616 5 -8.9348 -22.0841 -18.8113 0.0256651 0.0224116 0.00544527 0 0 0
274 5 -9.13536 -18.4518 -19.8686 0.00362541 0.00775006 -0.0281341 0 0 0
278 17 -5.64413 -17.1134 -22.549 -0.00880097 -0.00216596 0.00706946 0 0 0
279 5 -5.44798 -17.9726 -22.2819 -0.0234069 0.00754606 -0.0097832 0 0 0
1178 17 -4.80118 -19.5895 -21.503 0.00184527 -0.0015976 0.00100263 0 0 0
1180 5 -5.08646 -19.7428 -20.548 -0.00266528 -0.0200625 0.0158254 0 0 0
611 17 -4.7333 -21.04 -18.9383 -0.000333718 -0.00151804 -0.00292267 0 0 0
280 5 -6.16007 -16.6929 -21.8289 0.00768737 -0.0136604 -0.0296744 0 0 0
422 17 -8.15711 -21.5165 -22.4556 -0.00421064 -0.00297052 -0.000600806 0 0 0
424 5 -8.18909 -21.1547 -23.3935 0.00134335 0.0142736 -0.000273203 0 0 0
8625 5 -5.52024 -21.8747 -24.0303 0.00959435 0.0290498 0.0219772 0 0 1
1179 5 -4.8234 -20.4824 -21.9745 -0.00527632 0.000367916 0.00747572 0 0 0
612 5 -4.17884 -20.4157 -18.4165 0.0073946 -0.0151992 -0.00851112 0 0 0
3599 17 -4.66193 -22.0534 -22.4746 0.00198175 -0.00162421 -0.00103686 0 1 0
96 5 -6.1799 -22.0368 -17.763 0.0273381 -0.0102093 0.00299028 0 0 0
95 17 -7.13129 -21.8423 -17.7456 0.0022083 0.0049251 0.000939843 0 0 0
97 5 -7.18753 -21.4431 -16.8733 -0.0147569 0.00531482 -0.0122713 0 0 0
8726 17 -3.50769 -16.8544 -17.1313 0.000263428 0.00410084 0.00173839 0 0 1
613 5 -4.08223 -21.8051 -19.0271 0.00844945 0.0052704 -0.00542019 0 0 0
3600 5 -3.88587 -22.6172 -22.7198 0.0407268 0.00517289 -0.00653699 0 1 0
423 5 -8.87182 -22.2063 -22.4891 0.0103052 -0.00301888 0.0214316 0 0 0
3601 5 -5.00911 -22.5934 -21.7048 0.0107952 -0.0280316 0.01906 0 1 0
1013 17 -4.5912 -24.0231 -17.018 0.00139124 0.00347034 -0.0120689 0 0 0
314 17 -8.53457 -18.7362 -21.6502 0.00842684 0.00319199 0.00251815 0 0 0
315 5 -8.36653 -19.6275 -21.6846 -0.00995823 -0.0368307 -0.00186822 0 0 0
316 5 -8.31359 -18.481 -22.5768 0.0214072 -0.00777705 0.0246224 0 0 0
159 5 -7.64312 -17.4105 -20.7357 -0.0319521 0.000360867 0.0184459 0 0 0
158 17 -7.14814 -16.6939 -20.3122 0.00447914 -0.00339625 0.00118227 0 0 0
2283 5 -6.52357 -22.3196 -19.8695 0.00133345 -0.00420825 0.00123791 0 1 0
1015 5 -4.15446 -23.2504 -16.4993 0.00900528 -0.00222154 0.00859085 0 0 0
8683 5 -8.36305 -23.9097 -24.0116 0.0286056 -0.0021166 0.00597147 0 0 1
10539 5 -9.71712 -23.5802 -21.9195 0.00994557 0.0028597 0.0247945 0 1 1
8813 17 -8.8495 -18.7409 -24.375 -0.00350151 -0.000198426 -0.00285243 0 0 1
10538 17 -10.0214 -23.1677 -21.0997 -0.00158344 0.00606418 0.000918562 0 1 1
2284 5 -7.27659 -22.5099 -21.1064 0.0101984 0.00668257 0.00741017 0 1 0
2282 17 -6.65221 -23.0161 -20.5674 0.00430361 0.0113946 -0.0010174 0 1 0
8814 5 -9.44873 -17.9718 -24.4242 0.0278976 0.0267123 -0.00750762 0 0 1
8728 5 -2.68218 -16.3489 -16.9156 -0.0221321 -0.0141326 0.0217462 0 0 1
1255 5 -2.77295 -19.6766 -16.7761 0.00369044 0.0182948 0.00345668 0 0 0
1254 5 -3.25665 -18.7034 -17.6415 0.0148663 -0.0126194 -0.00405628 0 0 0
1253 17 -2.82658 -19.5852 -17.7545 -0.00506828 0.000430301 0.000124932 0 0 0
1020 5 -0.00780208 -19.9169 -23.3005 0.0037768 0.0156328 -0.00583051 0 0 0
1019 17 -0.37191 -20.624 -22.7627 -0.00230125 0.00292348 -0.00424422 0 0 0
1021 5 -0.871511 -20.0409 -22.0615 -0.00176266 -0.00524992 0.0298534 0 0 0
9225 5 -0.264103 -17.8959 -18.7465 0.0129498 0.0219925 0.00598243 0 0 1
9224 17 0.408925 -18.3391 -18.19 0.00884057 -0.000509619 0.0029773 0 0 1
992 17 2.69503 -17.4681 -22.3572 -0.00202019 0.000337965 -7.63644e-05 0 0 0
3766 5 -0.977623 -20.8056 -17.7329 0.0112634 0.0062674 0.0301642 0 1 0
3808 5 -0.663476 -23.9075 -21.6625 0.00213857 0.00312476 -0.0380508 0 1 0
870 5 0.788664 -21.9333 -20.2486 -0.012659 0.0189065 -0.030026 0 0 0
510 5 -2.55811 -17.0946 -19.2584 0.0107812 -0.0216435 0.0188378 0 0 0
509 17 -1.82322 -17.0317 -19.8014 0.00357581 0.00839044 0.00808967 0 0 0
905 17 2.57114 -18.4664 -19.7684 -0.00218362 0.00689651 0.003038 0 0 0
994 5 3.22688 -18.2492 -22.494 0.0236635 -0.0174855 0.0219226 0 0 0
869 17 0.276938 -22.5452 -20.8742 0.00453367 -0.000688201 -0.0034133 0 0 0
871 5 0.399578 -22.0509 -21.7004 0.00100372 0.00573993 0.0161387 0 0 0
3765 5 0.31558 -21.0542 -18.3545 0.0191401 -0.0166252 0.00383678 0 1 0
3764 17 -0.320789 -21.4714 -17.6949 0.000946258 0.00192602 0.00376018 0 1 0
9226 5 1.26636 -18.0217 -18.5767 0.00693078 0.0306708 -0.0106365 0 0 1
3771 5 2.10464 -20.0533 -19.4827 0.0120804 -0.00854663 -0.00486411 0 1 0
511 5 -1.85876 -17.9312 -20.2199 -0.00195257 0.0255891 -0.0113057 0 0 0
1252 5 0.253889 -17.764 -16.5403 0.00902384 0.0189084 0.0216549 0 0 0
907 5 2.37892 -18.0693 -20.6211 0.000144967 0.00323934 0.0175885 0 0 0
3772 5 2.22075 -21.0292 -18.4424 0.00637549 -0.0281915 0.00783274 0 1 0
993 5 2.09413 -17.5481 -23.0636 0.00628421 -0.00447697 0.0116709 0 0 0
987 5 -1.07878 -23.0054 -18.2738 0.0114531 0.00113295 -0.0170622 0 0 0
913 5 -0.0636036 -21.998 -23.6057 -0.00845357 0.0116489 -0.0220925 0 0 0
3770 17 1.77622 -20.9832 -19.2491 0.00311241 0.00521149 0.00210003 0 1 0
3807 5 -0.738025 -24.1578 -23.0143 -0.0147207 -0.00391922 -0.00821556 0 1 0
986 17 -1.07308 -23.9103 -18.6808 -0.000814575 0.00260449 0.000913329 0 0 0
3882 5 2.6472 -23.4124 -19.6289 0.00736065 -0.0434949 -0.00374869 0 1 0
911 17 0.0378846 -22.9201 -24.0355 -0.00141707 -0.00282286 0.00171918 0 0 0
8827 5 -3.10838 -19.0914 -21.7848 -0.0286814 -0.0245371 -0.0211531 0 0 1
988 5 -0.345036 -23.6704 -19.2961 0.0396777 -0.0239615 0.0177961 0 0 0
3713 17 -3.48752 -23.4377 -19.6343 0.00356829 -0.00243976 0.00214773 0 1 0
3714 5 -2.52058 -23.5529 -19.4716 0.0197916 -0.00489682 -0.0338549 0 1 0
3881 17 2.68253 -24.3993 -19.6304 -0.0025173 0.00447411 -0.002635 0 1 0
8825 17 -2.20703 -18.708 -21.8923 0.00450788 -0.00253387 0.00760314 0 0 1
8826 5 -2.29779 -18.1457 -22.7463 -0.0143102 -0.0132782 0.0224477 0 0 1
9155 17 -2.43408 -17.3619 -24.1289 -0.000442438 0.00599263 -0.0014146 0 0 1
743 17 0.837584 -17.9801 -24.2599 -0.000707134 0.00378555 0.00190873 0 0 0
1064 17 4.52746 -19.4595 -22.4468 0.00733152 0.0093123 0.0042793 0 0 0
906 5 3.54157 -18.3273 -19.7757 0.00273626 0.0163549 -0.0144104 0 0 0
3896 17 7.98483 -24.2274 -17.4908 0.000590112 -0.000610529 0.00328974 0 1 0
9125 17 8.16519 -23.3201 -21.265 0.00188266 0.00410821 -0.00357091 0 0 1
9126 5 8.74664 -23.1114 -20.4899 -0.0170978 -0.0239072 0.0141963 0 0 1
929 17 4.74349 -21.3305 -18.5773 -0.000918133 0.00300296 -0.00880622 0 0 0
1160 17 5.857 -16.4261 -22.4333 -0.000819772 0.0019316 -0.0019792 0 0 0
1161 5 5.87155 -17.1742 -23.0333 -0.0322224 0.00467063 -0.024344 0 0 0
930 5 5.42655 -20.7439 -18.961 -0.00182818 0.00193237 0.0247683 0 0 0
702 5 6.6145 -20.8829 -20.6095 -0.0420094 0.00867462 -0.0110994 0 0 0
703 5 7.72865 -20.8815 -19.5791 -0.000678997 0.00225619 -0.00615441 0 0 0
701 17 7.00333 -20.2956 -19.9342 0.00549047 -0.00253886 -0.00154076 0 0 0
1403 17 9.37084 -22.256 -18.8419 -0.00157224 -0.000475922 0.00834369 0 0 0
1405 5 9.81324 -21.8663 -18.1289 -0.00957115 -0.0128693 -0.00144726 0 0 0
694 5 6.14369 -18.4696 -19.6617 -0.00729731 -0.02703 0.0220906 0 0 0
692 17 5.35057 -17.9005 -19.6008 0.00503639 -0.000158173 0.00193869 0 0 0
693 5 5.55639 -17.264 -20.3056 -0.0187637 0.00793782 -0.000276754 0 0 0
9331 5 9.15538 -16.9978 -22.0433 -0.000869551 -0.0189974 -0.00375873 0 0 1
1404 5 9.06938 -23.0805 -18.3907 -0.0253995 -0.00923538 -0.00959959 0 0 0
714 5 5.02792 -21.3824 -16.7734 -0.000455131 0.010723 0.0193303 0 0 0
9329 17 9.90406 -17.4232 -22.6146 0.000491805 -0.00396928 0.0074131 0 0 1
9330 5 10.4443 -16.6396 -22.7951 -0.00924506 0.0161471 -0.0132096 0 0 1
10876 5 6.54927 -22.4996 -21.93 0.0123644 -0.00732878 -0.000787209 0 1 1
10874 17 5.87881 -21.8601 -22.1402 0.00616692 0.00471193 0.00172906 0 1 1
10875 5 5.44055 -22.2685 -22.8994 0.0318182 0.0127618 0.0109211 0 1 1
931 5 4.28968 -21.6178 -19.3295 -0.00308041 -0.00414832 -0.00362295 0 0 0
1066 5 5.09916 -20.2877 -22.3347 -0.0133732 -0.0100533 -0.0138131 0 0 0
1065 5 5.0589 -18.9059 -23.0012 -0.0416604 -0.0186913 -0.0306816 0 0 0
3756 5 4.47304 -24.4102 -23.3518 0.00571851 -0.00951602 -0.0104133 0 1 0
3755 17 4.76797 -23.7364 -23.9649 -0.00246511 -0.00477213 0.00408423 0 1 0
3757 5 5.52239 -24.1353 -24.4111 0.00762459 -0.0184079 0.0105654 0 1 0
9137 17 8.50896 -23.5836 -24.4375 -0.00685114 0.00522355 -0.00463046 0 0 1
9139 5 9.33728 -23.5068 -23.9555 0.00749015 -0.000221831 0.00981766 0 0 1
3898 5 7.20062 -24.311 -18.0668 -0.000832927 -0.0316924 -0.0045124 0 1 0
9223 5 10.1581 -18.6134 -23.7797 -0.019174 -0.0124233 0.0136958 0 0 1
9127 5 8.82676 -22.9281 -21.9303 0.0144464 -0.0388157 0.000974951 0 0 1
9499 5 16.8083 -17.8415 -23.749 0.0070667 -0.0118748 -0.00924197 0 0 1
9498 5 15.5514 -18.5243 -24.2842 0.00129943 0.023082 -0.0277138 0 0 1
1411 5 10.6585 -21.5652 -21.4774 -0.0144478 0.028568 -0.00463444 0 0 0
1409 17 10.5011 -22.3127 -22.0627 -0.000163184 0.00585526 -0.00103753 0 0 0
1410 5 10.7448 -21.8637 -22.9404 0.0168474 -0.0308289 -0.00142749 0 0 0
969 5 10.8656 -18.8324 -22.1242 0.0177787 0.0247809 0.0598714 0 0 0
968 17 11.3825 -19.5368 -21.7167 0.00143076 3.75946e-05 0.000376342 0 0 0
970 5 11.8399 -19.0886 -20.9927 -0.00314857 0.0602728 -0.0174721 0 0 0
9387 5 13.0037 -19.4682 -23.226 0.0191787 0.0189038 -0.0143359 0 0 1
9386 17 13.8734 -19.3534 -23.6285 0.00398674 0.00265197 0.00574017 0 0 1
670 5 11.9254 -16.8432 -19.8652 -0.00600143 0.00738411 -0.0242139 0 0 0
668 17 12.5374 -17.5143 -20.2254 -0.00588481 -0.00826166 -0.000154378 0 0 0
1597 5 17.1167 -22.636 -19.1493 -0.0384892 0.0128402 -0.0083694 0 0 0
1431 5 12.9115 -22.1465 -24.4638 -0.00148841 -0.00476636 -0.0109218 0 0 0
1432 5 13.2908 -22.6902 -23.1076 -0.00542634 -0.0386158 -0.0159755 0 0 0
1430 17 13.581 -22.0053 -23.7616 0.00247699 -0.00346048 -0.00242761 0 0 0
9217 5 15.2679 -18.5236 -17.4461 0.0212914 0.0473904 0.00701979 0 0 1
9216 5 16.725 -18.6139 -16.9969 -0.00796766 -0.026315 -0.0327703 0 0 1
9215 17 16.0351 -17.9417 -17.354 -0.00168538 -0.00436834 -0.00069705 0 0 1
1584 5 12.9939 -19.1843 -17.1624 -0.00427551 -0.00106656 0.00349373 0 0 0
1421 17 16.1115 -21.9358 -22.2416 -0.00365427 -0.00181778 -0.00227582 0 0 0
1645 5 16.1503 -22.9936 -16.5914 -0.0311698 0.000225066 0.0109862 0 0 0
1422 5 15.9585 -21.8942 -23.1876 0.0109662 0.00598474 0.00866231 0 0 0
669 5 12.8359 -18.0149 -19.4567 -0.0118714 0.0325449 0.0236544 0 0 0
9322 5 13.8229 -16.5282 -21.198 -0.00437122 0.00342676 -0.00815266 0 0 1
1637 17 17.2545 -20.7249 -19.1696 0.000340102 0.00256536 0.00478388 0 0 0
1583 17 13.113 -18.3877 -17.7078 -0.0025258 0.00367383 0.00334882 0 0 0
9382 5 15.9777 -20.1744 -21.6896 -0.010412 0.00262589 0.000679992 0 0 1
9380 17 15.8957 -19.2444 -21.3962 -0.000550602 0.00278178 0.00318419 0 0 1
1639 5 16.9071 -20.1701 -19.9416 0.00757033 -0.00411722 0.0107071 0 0 0
1594 5 13.6103 -23.3691 -20.6402 0.0251262 0.0278548 0.00460906 0 0 0
1592 17 13.7163 -23.6422 -21.5245 -0.00212734 0.00387706 0.000979258 0 0 0
3879 5 11.3154 -21.282 -16.4698 -0.038106 -0.0152727 0.0223852 0 1 0
1585 5 12.5207 -17.8035 -17.2103 -0.0188022 0.0141134 0.00986972 0 0 0
9381 5 15.4472 -18.8076 -22.151 0.0203254 -0.0242525 -0.0133132 0 0 1
9351 5 17.168 -18.1343 -21.5031 0.00681432 0.0228835 -0.00316535 0 0 1
1444 5 16.6977 -16.4109 -20.0343 -0.00429967 -0.00632362 0.00360847 0 0 0
1443 5 16.2857 -16.4365 -18.5432 -0.0111282 0.0232201 -0.013432 0 0 0
3704 17 13.7446 -24.3533 -16.4463 -0.000143792 0.000984672 -0.00635011 0 1 0
9497 17 16.4946 -18.6194 -24.2115 0.00293059 -0.00402946 -4.84518e-05 0 0 1
3778 5 13.5725 -21.8127 -18.7484 0.0169089 -0.00720738 0.00734031 0 1 0
9388 5 14.1147 -20.3481 -23.6247 -0.000681847 -0.016029 -0.018591 0 0 1
3776 17 13.3772 -22.7438 -19.0031 0.00662789 -0.00202262 -0.00796249 0 1 0
1593 5 14.2122 -24.485 -21.311 -0.00264075 -0.00346924 -0.00905053 0 0 0
9235 5 10.8251 -23.9898 -21.5469 0.0170532 -0.0119358 -0.00899741 0 0 1
3777 5 13.4805 -23.3043 -18.1622 0.00302539 0.0129702 0.00708971 0 1 0
1423 5 15.4297 -22.5837 -21.934 -0.0103068 0.0110678 -0.000251154 0 0 0
1595 17 17.1348 -23.6191 -19.0284 -0.00241934 0.000851216 -0.00038391 0 0 0
1596 5 16.7155 -23.8636 -19.8636 -0.014443 -0.0307523 0.036109 0 0 0
10641 5 24.1228 -22.2536 -20.6069 0.00730245 0.000663905 0.000831414 -1 1 1
4172 17 24.1895 -24.1176 -22.7899 -0.00257006 -0.000735649 0.00216648 0 1 0
8590 5 23.332 -20.0955 -21.4045 -0.00109529 -0.00625678 -0.00787066 -1 0 1
1572 5 23.8001 -20.069 -17.9808 -0.00315617 0.0208635 0.024926 0 0 0
4173 5 23.2345 -24.304 -22.4982 0.0276413 -0.0324193 -0.00196766 0 1 0
8588 17 24.2384 -19.934 -21.1304 -0.00125467 9.31783e-05 -0.000238738 -1 0 1
1638 5 17.5042 -19.9951 -18.5547 0.00835737 0.00838462 0.0099241 0 0 0
9350 17 17.9651 -17.5289 -21.4133 0.00376791 0.00335147 0.00476939 0 0 1
9438 5 19.4922 -20.5253 -18.3539 -0.00955561 0.0104016 0.00798282 0 0 1
1389 5 21.7658 -20.4638 -16.5704 0.0181458 -0.00814036 0.00360535 0 0 0
229 5 19.2358 -23.0649 -16.735 0.0090008 -0.0121155 -0.00578251 -1 0 0
1390 5 21.6181 -21.4742 -17.7086 -0.00583694 -0.01077 0.00572115 0 0 0
1388 17 22.2902 -21.0268 -17.1507 -0.00050745 0.0018454 -0.00216494 0 0 0
3654 5 21.3616 -21.6215 -19.9766 0.0135397 -0.0164766 -0.0121068 -1 1 0
3655 5 21.5971 -22.2467 -21.3884 -0.0184616 0.0153539 -0.0247788 -1 1 0
3653 17 22.0458 -21.7564 -20.6379 -0.00246411 -0.00348877 -0.00596918 -1 1 0
9439 5 19.3082 -21.9061 -19.0406 0.016265 -0.00347814 0.00518321 0 0 1
9437 17 19.958 -21.1147 -19.0257 -0.00925241 -0.000215552 0.00275879 0 0 1
232 5 21.1584 -20.1543 -21.1502 -0.0136532 -0.0116945 -0.0121096 -1 0 0
3392 17 21.3467 -23.5983 -22.6062 -0.00176214 -0.0038858 -0.00944111 -1 1 0
11020 5 18.1063 -22.4255 -21.9088 -0.00134519 0.000929289 0.00568787 0 1 1
9368 17 20.5488 -24.2642 -17.385 0.00503024 -0.011784 -0.00442032 0 0 1
11018 17 18.8178 -23.0334 -21.8005 -0.00300867 0.00272096 0.00343991 0 1 1
11019 5 18.4396 -23.9505 -21.9326 -0.00480214 0.00877208 0.00310306 0 1 1
3393 5 20.4018 -23.5855 -22.3091 -0.00394424 0.0321171 -0.0143521 -1 1 0
1509 5 19.2328 -18.4098 -17.985 -0.00995488 0.0106758 0.00816623 0 0 0
1508 17 18.786 -19.044 -17.4166 -0.00892356 0.00543349 -0.000566239 0 0 0
1510 5 19.2307 -18.7903 -16.5199 0.00182072 -0.00430871 0.00291556 0 0 0
9270 5 21.0065 -17.9647 -23.2778 0.00921789 -0.0082134 -0.0230455 0 0 1
3394 5 21.2625 -23.4566 -23.5381 0.0212763 0.0235431 0.0114377 -1 1 0
231 5 20.5728 -18.9251 -20.6381 0.00420903 0.008206 0.0060216 -1 0 0
230 17 21.0219 -19.2282 -21.421 0.00604275 0.000652831 0.000538398 -1 0 0
9408 5 23.9675 -17.6354 -22.3455 0.00530095 0.0150319 -0.00831732 0 0 1
9415 5 20.3829 -16.5643 -19.4509 0.0114041 -0.0184772 0.00897534 0 0 1
9413 17 19.6388 -17.0376 -18.9925 -0.00227877 -0.000399944 0.000821753 0 0 1
9414 5 19.142 -17.3296 -19.7699 0.00588128 -0.0175334 0.00799759 0 0 1
9352 5 18.0543 -16.9974 -22.2616 0.0219434 -0.0101274 0.00296684 0 0 1
9269 17 21.0842 -17.0314 -23.4685 -0.00290931 -0.00665436 0.0046118 0 0 1
9271 5 20.1669 -16.7777 -23.2423 -0.0145923 -0.00431269 -0.0193224 0 0 1
9460 5 21.8163 -16.6605 -21.2912 0.017151 0.00194002 -0.0111319 0 0 1
9407 17 24.3246 -17.2322 -23.1395 0.00504549 -0.00112705 -0.00492893 0 0 1
1339 5 23.6971 -22.542 -17.475 -0.00096634 -0.00807547 0.026314 0 0 0
1337 17 24.0663 -23.1121 -16.8147 -0.00185365 -9.20131e-06 0.00105511 0 0 0
1573 5 24.2005 -19.9662 -19.4786 0.0126307 0.0214412 -0.0134126 0 0 0
1418 17 -22.0847 -15.2504 -17.5235 -0.00634374 -0.0033297 0.00465021 1 0 0
1416 5 -20.9828 -16.0932 -23.837 0.015692 0.00197841 0.00470545 1 0 0
3325 5 -17.9626 -16.0075 -19.2684 -0.0101403 0.00216509 0.0318507 0 1 0
3323 17 -17.5114 -16.3328 -20.0216 -3.40047e-05 -0.00330001 0.00181447 0 1 0
1476 5 -20.8621 -15.4877 -20.4095 0.00173631 0.00216922 -0.00213181 1 0 0
43 5 -20.4479 -15.4946 -17.5567 0.00166024 0.0043288 -0.00195116 0 0 0
41 17 -19.5253 -15.4343 -17.9472 0.000810873 0.00482891 -0.00217512 0 0 0
42 5 -19.7732 -14.8774 -18.6868 0.00593184 0.0102522 -0.0123758 0 0 0
1419 5 -22.4519 -14.5166 -16.9805 -0.0128392 0.0320996 -0.00345597 1 0 0
267 5 -17.9839 -11.5501 -18.8222 0.0227846 0.0119047 -0.0128995 0 0 0
266 17 -18.6451 -11.5522 -19.5819 0.00401938 -0.00357956 0.00287747 0 0 0
350 17 -20.3894 -13.7866 -20.2336 -0.00196696 0.000543992 -0.00427846 0 0 0
1420 5 -22.9406 -15.5101 -17.9526 0.0159724 -0.0125061 -0.0129852 1 0 0
1456 5 -18.9945 -11.0969 -16.983 -0.0166065 0.0128804 0.00521625 1 0 0
351 5 -21.0393 -13.3587 -20.8044 -0.00254202 -0.00289172 0.0168703 0 0 0
9362 17 -21.0159 -9.91288 -24.0246 -0.00222217 -0.00918452 -0.00528853 1 0 1
268 5 -18.0465 -11.0904 -20.2071 -0.0119719 -0.0244112 -0.01326 0 0 0
352 5 -19.7946 -13.0789 -20.0345 -0.0100628 0.00278134 0.0279124 0 0 0
9364 5 -21.581 -10.6531 -24.1281 -0.00593815 -0.00901873 -0.00371558 1 0 1
8824 5 -22.736 -12.1322 -18.7154 0.0283644 0.00909833 0.01107 0 0 1
8822 17 -23.0868 -11.4867 -19.2916 0.00433455 0.00153138 -0.00452267 0 0 1
92 17 -20.4785 -9.56229 -19.6789 -0.00555233 -0.00212577 -0.00368 0 0 0
1538 17 -22.5067 -12.6746 -21.6213 -0.0108319 0.00267976 0.00249533 1 0 0
1539 5 -22.4919 -12.434 -22.55 -0.025609 -0.000400266 0.0197006 1 0 0
1540 5 -23.0551 -13.4892 -21.7088 -0.0111874 0.00462402 0.0227534 1 0 0
8707 5 -18.7588 -14.9946 -23.4738 -0.0330736 -0.000205386 -0.00651847 0 0 1
94 5 -20.011 -10.382 -19.49 -0.00231804 0.0116314 -0.00658022 0 0 0
8653 5 -20.3319 -8.68764 -22.767 -0.00619371 -0.00697135 0.00220597 0 0 1
1373 17 -23.0797 -8.86898 -20.2802 -0.00372819 0.00513291 -0.000324696 1 0 0
1375 5 -22.1827 -8.675 -20.4881 -0.00511103 -0.00127342 -0.00632023 1 0 0
1374 5 -22.9668 -9.73829 -19.911 -0.0141921 0.0150949 0.0108253 1 0 0
1396 5 -18.6028 -14.1888 -21.465 0.00795227 -0.00490108 0.00448711 1 0 0
1394 17 -17.7374 -14.3085 -21.8561 -0.00445143 -0.00441958 -0.00573578 1 0 0
1454 17 -18.3804 -10.3261 -16.7866 -0.00488506 0.00472936 -0.00360404 1 0 0
1502 17 -24.2035 -14.4704 -22.5279 0.00134274 -0.00186317 -0.00421186 1 0 0
8823 5 -22.7108 -11.8799 -20.0661 0.00502021 -0.0219837 0.00577492 0 0 1
1504 5 -24.2793 -14.3758 -23.5437 0.00664947 -0.0197531 -0.0107342 1 0 0
8570 17 -23.2332 -11.6717 -24.317 0.00129815 0.0047035 0.00582887 0 0 1
93 5 -20.2896 -8.95923 -18.9387 -0.00673186 -0.0178968 -0.00371793 0 0 0
8652 5 -19.9116 -8.52114 -21.4233 0.0204348 0.0164967 -0.00183374 0 0 1
1503 5 -24.4023 -15.4089 -22.5106 -0.00631008 0.0241454 -0.00324358 1 0 0
1334 17 -24.0322 -12.9656 -16.4925 -0.00140796 -0.00205775 0.00132558 1 0 0
10509 5 -24.3027 -9.15008 -23.8841 -0.00671856 0.00413936 -0.00942399 1 0 1
8705 17 -19.341 -15.3051 -24.1668 -0.00360139 -0.000659043 -0.00247221 0 0 1
8706 5 -18.8916 -16.1435 -24.3897 0.00810085 -0.00716531 0.001137 0 0 1
1395 5 -17.3838 -15.1157 -21.435 0.00773395 0.0229171 -0.0380616 1 0 0
344 17 -14.0009 -15.8282 -22.3128 0.00113742 -0.004774 -0.00373003 0 0 0
345 5 -13.133 -16.2392 -22.2877 0.00948512 0.00690015 -0.00112118 0 0 0
346 5 -14.3025 -16.1875 -23.167 -0.00572523 -0.0300139 0.029046 0 0 0
1446 5 -15.9384 -8.97286 -23.0368 -0.00250998 0.00243315 0.0137682 1 0 0
1445 17 -15.9564 -9.2362 -22.144 -0.00186682 0.00199603 -7.64553e-05 1 0 0
8730 5 -12.3571 -10.8757 -21.4231 -0.0374906 -0.00828079 -0.0105739 0 0 1
1447 5 -15.9167 -10.2462 -22.2582 0.00398572 0.0125687 0.00988711 1 0 0
8564 17 -15.3917 -8.75586 -19.5438 -0.00652838 -0.00116915 -0.000935315 0 0 1
8566 5 -15.6546 -9.07294 -20.4715 -0.000770814 0.00307008 -0.0188418 0 0 1
8565 5 -14.5015 -8.42141 -19.6782 0.0167721 0.012486 -0.00254038 0 0 1
418 5 -15.8627 -14.0802 -17.7133 -0.00437887 -0.00140836 -0.0266746 0 0 0
416 17 -15.591 -15.0422 -17.9369 0.00478825 -0.00291748 0.00225908 0 0 0
309 5 -15.6864 -12.2933 -20.5647 0.0183391 -0.0441078 0.00567768 0 0 0
417 5 -14.6647 -15.1403 -17.5426 0.0158662 0.00609365 -0.0103927 0 0 0
380 17 -14.5048 -14.0465 -20.3176 -0.00241072 -0.00321371 0.00300859 0 0 0
310 5 -16.8815 -12.6821 -21.3456 -0.00353542 -0.00812351 -0.0116252 0 0 0
308 17 -16.3465 -11.8573 -21.1871 -0.00196881 0.00456992 0.000598008 0 0 0
381 5 -15.1343 -14.5819 -19.7299 0.0112445 0.0135504 0.0139339 0 0 0
179 17 -12.7803 -12.4442 -22.3497 0.00240847 -0.00296995 -0.000564947 0 0 0
181 5 -12.2169 -12.9672 -21.7376 0.00684359 0.0294211 0.0335152 0 0 0
180 5 -13.5856 -12.9757 -22.3653 0.0161504 -0.0321571 0.0086762 0 0 0
178 5 -12.3108 -8.7833 -20.2164 -0.0183584 0.0132876 0.0205392 0 0 0
382 5 -14.4062 -14.6424 -21.1487 0.0176224 0.00204404 -0.0187769 0 0 0
275 17 -12.6762 -14.5593 -16.3557 -0.00481547 0.00116254 -0.00487133 0 0 0
8731 5 -11.4455 -9.88364 -22.1021 0.0215162 0.00216758 -0.00566222 0 0 1
8729 17 -11.6767 -10.2229 -21.2092 0.00083731 -0.00360565 -0.00391016 0 0 1
8786 17 -11.9722 -13.898 -19.9384 0.00379141 -0.00362573 0.00136591 0 0 1
323 17 -16.5442 -12.5921 -17.2994 0.00471 -0.00059084 -0.00183248 0 0 0
325 5 -15.7834 -12.0381 -16.9968 -0.0164578 0.00946729 -0.0271606 0 0 0
6380 17 -10.9523 -8.43867 -23.1486 0.00266814 0.00143458 -0.00103454 0 0 1
8563 5 -10.7131 -11.9908 -23.3959 -0.00290798 -0.0221475 0.00912395 0 0 1
8787 5 -12.8879 -13.5895 -19.9351 -0.00461462 0.0103725 -0.0133402 0 0 1
8788 5 -11.9514 -14.0517 -18.9927 0.00589569 -0.00180869 -0.00281339 0 0 1
348 5 -17.4588 -8.90735 -16.8619 -0.00873511 0.00516047 0.0145147 0 0 0
349 5 -16.4738 -8.598 -18.0453 -0.00284479 0.0170664 0.000624852 0 0 0
324 5 -17.3086 -12.1651 -16.8303 -0.00532443 7.54243e-05 -0.0181815 0 0 0
8727 5 -3.9664 -16.24 -17.6294 0.00149931 -0.00583199 -0.00638447 0 0 1
23 17 -9.32083 -16.2767 -16.8665 0.00133831 -0.00252214 0.0104947 0 0 0
25 5 -9.42008 -16.0277 -17.8391 -0.00386291 0.0317526 -0.0103186 0 0 0
8918 17 -5.82076 -11.6947 -23.067 0.00189036 -0.00161487 0.00665392 0 0 1
147 5 -9.51605 -10.3069 -19.1931 -0.00530637 -0.00420883 0.00789364 0 0 0
160 5 -7.83412 -16.1959 -19.9428 0.0112983 -0.00247157 -0.0301148 0 0 0
411 5 -10.3058 -14.8592 -20.1958 -0.0133064 0.00808976 0.0207786 0 0 0
410 17 -9.51654 -15.1383 -19.7249 0.0010075 -0.00228495 -0.00252019 0 0 0
412 5 -9.4935 -14.454 -19.0019 0.0186243 0.0121349 -0.00837497 0 0 0
1110 5 -4.81981 -14.0209 -18.8207 0.014869 -0.032112 0.000545061 0 0 0
1109 17 -4.80721 -15.052 -18.7211 0.00754512 0.000648379 -0.00201944 0 0 0
1111 5 -5.2638 -15.4084 -19.4521 -0.00799383 5.03236e-05 -0.000565614 0 0 0
9894 5 -6.00017 -14.6767 -23.3654 -0.00156116 -0.00830636 0.0110114 0 0 1
373 5 -7.05533 -9.98052 -18.4029 -0.00309798 0.00446988 -0.00428516 0 0 0
372 5 -6.41155 -10.1123 -19.623 0.000278366 0.0278259 0.00671101 0 0 0
671 17 -4.76274 -13.9552 -21.9174 0.00372423 0.00568677 0.00376215 0 0 0
672 5 -4.07459 -14.5709 -21.9793 0.0116429 0.0184243 0.0188281 0 0 0
673 5 -4.64328 -13.6379 -20.9924 -0.0234593 -0.0135244 0.00859286 0 0 0
980 17 -8.00195 -10.909 -21.7185 -0.0027084 -0.00525649 0.000434275 0 0 0
982 5 -8.42998 -11.2411 -20.8843 -0.0206532 0.00775978 0.0189285 0 0 0
8920 5 -5.60852 -12.4956 -22.4921 0.024605 0.0253349 0.0320641 0 0 1