LAMMPS data file via write_data, version 2 Aug 2023, timestep = 25000, units = real

11115 atoms
19 atom types
7415 bonds
18 bond types
3731 angles
28 angle types
44 dihedrals
21 dihedral types
7 impropers
6 improper types

-24.5 24.5 xlo xhi
-24.5 24.5 ylo yhi
-24.5 24.5 zlo zhi

Masses

1 1.008
2 1.008
3 1.008
4 1.008
5 1.008
6 12.011
7 12.011
8 12.011
9 12.011
10 12.011
11 12.011
12 14.007
13 14.007
14 15.999
15 15.999
16 15.999
17 15.999
18 35.45
19 39.098

Pair Coeffs # lj/charmmfsw/coul/long

1 0.046 0.400014 0.046 0.400014
2 0.034 2.38761 0.034 2.38761
3 0.024 2.38761 0.024 2.38761
4 0.022 2.35197 0.022 2.35197
5 0.046 0.400014 0.046 0.400014
6 0.11 3.56359 0.11 3.56359
7 0.07 3.56359 0.07 3.56359
8 0.07 3.56359 0.07 3.56359
9 0.032 3.56359 0.01 3.38542
10 0.056 3.58141 0.01 3.38542
11 0.078 3.63487 0.01 3.38542
12 0.2 3.29633 0.2 2.76179
13 0.2 3.29633 0.2 3.29633
14 0.12 3.02906 0.12 2.49452
15 0.12 3.02906 0.12 2.49452
16 0.1521 3.15378 0.1521 3.15378
17 0.1521 3.15057 0.1521 3.15057
18 0.15 4.04468 0.15 4.04468
19 0.087 3.14265 0.087 3.14265

Bond Coeffs # harmonic

1 200 1.522
2 200 1.522
3 222.5 1.538
4 250 1.49
5 309 1.111
6 322 1.111
7 330 1.08
8 450 0.9572
9 370 1.345
10 320 1.43
11 440 0.997
12 430 1.36
13 480 1
14 620 1.23
15 650 1.23
16 750 1.22
17 230 1.4
18 545 0.96

Angle Coeffs # charmm

1 52 108 0 0
2 50 120 0 0
3 52 108 0 0
4 34 123 0 0
5 35 117 0 0
6 50 120 0 0
7 23 120 0 0
8 55 115 0 0
9 33 109.5 30 2.163
10 26.5 110.1 22.53 2.179
11 35.5 109 5.4 1.802
12 33 109.5 30 2.163
13 35.5 108.4 5.4 1.802
14 50 109.5 0 0
15 35 111 0 0
16 55 104.52 0 0
17 80 116.5 0 0
18 50 107 0 0
19 70 113.5 0 0
20 48 108 0 0
21 50 116.5 50 2.45
22 80 121 0 0
23 80 122.5 0 0
24 15 121 50 2.44
25 75 122.5 50 2.37
26 70 125 20 2.442
27 55 110.5 0 0
28 50 123 210 2.262

Dihedral Coeffs # charmmfsw

1 0.2 1 180 1
2 1.8 1 0 1
3 1.6 1 0 1
4 2.5 2 180 0
5 2.5 2 180 1
6 0 1 0 1
7 0 1 0 1
8 1.4 2 180 1
9 0.2 3 0 1
10 0 1 0 1
11 0 1 0 1
12 0 3 0 1
13 0.2 3 0 1
14 0 3 180 1
15 2.5 2 180 1
16 2.5 2 180 1
17 1.4 2 180 1
18 2.05 2 180 1
19 0.05 6 180 1
20 0.2 3 0 1
21 0 6 180 1

Improper Coeffs # harmonic

1 45 0
2 45 0
3 20 0
4 4 0
5 120 0
6 100 0

Atoms # full

243 74 5 0.417 -23.21735536807354 -18.656978387719846 -18.132825005257914 0 0 0
66 15 5 0.417 -22.84638450360413 -20.70414685216841 -19.00879594588357 0 0 0
10640 3540 17 -0.834 -24.211712782661955 -22.92681416400082 -20.30901108997418 0 1 1
67 15 5 0.417 -22.919709130945183 -22.036862936242855 -19.59015017422177 0 0 0
65 15 17 -0.834 -22.262719143579265 -21.47652172683799 -19.13000454707359 0 0 0
364 114 5 0.417 -19.79264534367311 -21.730835621891 -22.06478764116258 0 0 0
225 68 5 0.417 -20.508433597344265 -18.0076819171281 -21.329649489694845 0 0 0
362 114 17 -0.834 -19.902312771107777 -21.14050097493139 -22.888419404234895 0 0 0
363 114 5 0.417 -20.100112922286915 -20.290561046814926 -22.535322547914266 0 0 0
210 63 5 0.417 -20.078113516243544 -23.18337210534213 -19.94867092101038 0 0 0
3536 1172 17 -0.834 -22.867765432129723 -20.81025367408486 -23.638717435400658 0 1 0
10642 3540 5 0.417 -24.139366623375945 -23.541311155415176 -21.04238522001169 0 1 1
3537 1172 5 0.417 -22.06399160611486 -21.120500007157606 -23.2017644025587 0 1 0
1413 464 5 0.417 -21.628329307543776 -18.920582313860873 -16.92925814038761 1 0 0
211 63 5 0.417 -20.817929114069052 -21.82288377973405 -19.95536351383652 0 0 0
209 63 17 -0.834 -20.058473222985455 -22.292957156494847 -20.42347270779117 0 0 0
244 74 5 0.417 -23.21132886940758 -17.38239609263331 -18.81581804972708 0 0 0
242 74 17 -0.834 -22.575496134366382 -18.039997042938666 -18.478061440886425 0 0 0
224 68 17 -0.834 -20.427479204924136 -18.94771455324285 -21.247598390361993 0 0 0
226 68 5 0.417 -21.189175627648194 -19.002819442052395 -20.668650741126424 0 0 0
1494 491 5 0.417 -22.29804624620079 -22.694633500899467 -17.817171912291094 1 0 0
1493 491 17 -0.834 -21.85552977205706 -23.271911148742472 -17.14696806746416 1 0 0
1495 491 5 0.417 -22.667374285086655 -23.422370975158778 -16.639800147359285 1 0 0
1571 517 17 -0.834 -24.46266736310847 -19.97521149467098 -18.56697783436267 1 0 0
3553 1177 5 0.417 -17.780618318101475 -18.148181954634257 -20.707969100029946 0 1 0
3552 1177 5 0.417 -18.648541493870706 -19.333650904847463 -20.887305588606008 0 1 0
3551 1177 17 -0.834 -17.716208059360056 -19.138322821097912 -20.77219643108766 0 1 0
1475 485 17 -0.834 -21.06027791968263 -16.463582306832325 -20.490554935254856 1 0 0
1477 485 5 0.417 -21.258328909569286 -16.64560443819356 -19.610515937117167 1 0 0
1417 465 5 0.417 -21.364421074543518 -16.573137629612283 -22.474882177778603 1 0 0
370 116 5 0.417 -20.166259581606454 -24.463767163781117 -17.962824385807014 0 0 0
3465 1148 5 0.417 -18.29095383656898 -23.796228676266594 -20.582428981926853 0 1 0
3379 1119 5 0.417 -20.32668498568635 -22.14164865828762 -16.78585929332931 0 1 0
3378 1119 5 0.417 -18.893405109908148 -21.716676372406766 -16.877071023794684 0 1 0
3377 1119 17 -0.834 -19.76295092440489 -21.281875729531556 -16.672203464494928 0 1 0
1415 465 17 -0.834 -21.725049519350158 -16.458358356741655 -23.339613742825698 1 0 0
8589 2856 5 0.417 -24.229043640708277 -20.00246853105451 -21.919311327140658 0 0 1
3464 1148 17 -0.834 -17.573566025786974 -24.418268666052512 -20.794848964575312 0 1 0
3434 1138 17 -0.834 -18.835907844629293 -23.99106024406513 -24.18596188045142 0 1 0
9409 3129 5 0.417 -23.749532376319813 -17.48096376554989 -23.0379236910712 1 0 1
3435 1138 5 0.417 -18.359899598975563 -23.262451896951383 -23.62067085808008 0 1 0
3538 1172 5 0.417 -23.327204394701493 -21.655574468965952 -23.711363109814837 0 1 0
562 180 5 0.417 -18.802755143639608 -20.64444940450053 -24.294194662048866 0 0 0
3408 1129 5 0.417 -16.709227270650022 -22.971403771069586 -17.88144704688121 0 1 0
545 175 17 -0.834 -12.383061458928887 -20.562939473194433 -21.125579468836946 0 0 0
546 175 5 0.417 -13.246968354003716 -20.768932268470678 -20.776289592448222 0 0 0
547 175 5 0.417 -11.845331382544723 -21.240353578521816 -20.842395327016387 0 0 0
3386 1122 17 -0.834 -11.82277976417056 -17.78326107456919 -21.936973164704543 0 1 0
3388 1122 5 0.417 -11.9958004584167 -18.730363647481628 -21.653266850495115 0 1 0
3387 1122 5 0.417 -11.168611243013112 -17.5038416650201 -21.346611646084373 0 1 0
3546 1175 5 0.417 -16.02852585927103 -20.76152672373434 -21.859765849550914 0 1 0
3324 1101 5 0.417 -16.636907721183945 -16.571563362163715 -19.67345536325874 0 1 0
3598 1192 5 0.417 -10.968175023518542 -17.727066063342043 -18.428279532818852 0 1 0
626 202 17 -0.834 -14.916479014283988 -21.60147030660245 -19.730858433202037 0 0 0
628 202 5 0.417 -15.595796278077282 -22.243207263701922 -19.5023629445211 0 0 0
627 202 5 0.417 -15.107986732330769 -20.96914230943037 -19.029193307329713 0 0 0
129 36 5 0.417 -16.481432196820947 -19.202952110662537 -19.492649091800626 0 0 0
130 36 5 0.417 -15.127699970402915 -18.731373914595114 -18.98590505794695 0 0 0
128 36 17 -0.834 -15.892566680389297 -19.307012382849084 -18.720943603828687 0 0 0
3596 1192 17 -0.834 -11.76777970395351 -17.123533562822576 -18.317826244858026 0 1 0
238 72 5 0.417 -10.744326444681583 -22.978054131139245 -16.573152705640183 0 0 0
8777 2919 17 -0.834 -14.07807114992241 -22.852745182435896 -23.24058375666009 0 0 1
631 203 5 0.417 -13.675684502828735 -22.823635913743093 -20.427461943119695 0 0 0
3597 1192 5 0.417 -11.626699410680281 -16.558158974442303 -17.53602866376639 0 1 0
3469 1149 5 0.417 -16.800377635246818 -20.652851044439693 -17.766771660445187 0 1 0
3467 1149 17 -0.834 -16.882248424198707 -21.453904180948363 -17.268219892460348 0 1 0
8778 2919 5 0.417 -14.851878473470391 -22.36518968473656 -22.909220965441506 0 0 1
3545 1175 17 -0.834 -16.005670333215683 -20.99686528790442 -22.739034409016764 0 1 0
630 203 5 0.417 -13.332655540860104 -23.403665676263355 -21.77727535903196 0 0 0
3409 1129 5 0.417 -16.476643491492187 -24.3933883493016 -17.611525847885602 0 1 0
10630 3536 5 0.417 -12.24151808691327 -22.99505593213505 -23.68173486552961 0 1 1
212 64 17 -0.834 -14.295752352047135 -17.46222567413926 -19.88121436049033 0 0 0
214 64 5 0.417 -14.263940065960226 -17.201814689557686 -20.83375345062477 0 0 0
213 64 5 0.417 -13.379150750384003 -17.15961956113638 -19.633344470768243 0 0 0
1181 387 17 -0.834 -13.854316468334014 -18.228468365395727 -16.383008882514993 0 0 0
1182 387 5 0.417 -13.362320419017431 -17.801678385164426 -17.086385698487124 0 0 0
3468 1149 5 0.417 -16.562544981134565 -21.08958065944353 -16.43136725044141 0 1 0
3407 1129 17 -0.834 -16.567258847119838 -23.79495028384629 -18.33642989454093 0 1 0
3547 1175 5 0.417 -16.777517288082112 -20.542660774621336 -23.01718299022039 0 1 0
8559 2846 5 0.417 -12.21295282074175 -17.595292793962326 -23.75792455914919 0 0 1
8580 2853 5 0.417 -14.257851801132492 -20.55832678459785 -24.271266522030828 0 0 1
629 203 17 -0.834 -13.03638632585128 -23.445592828741905 -20.839410717685183 0 0 0
10628 3536 17 -0.834 -11.387728692813845 -23.104734320028637 -24.22107880551573 0 1 1
10540 3506 5 0.417 -10.93725457507846 -23.4918869047744 -21.02747477567636 0 1 1
8779 2919 5 0.417 -14.427118191225672 -23.172887430829576 -24.127914381601443 0 0 1
3715 1231 5 0.417 -3.827258595181202 -24.05483502265392 -18.997300196531405 0 1 0
236 72 17 -0.834 -10.309782296453076 -22.198487394513464 -16.35055601192047 0 0 0
237 72 5 0.417 -10.135860223983384 -21.906648621253694 -17.271581051651573 0 0 0
273 84 5 0.417 -9.916319937494782 -19.659037979502205 -19.35162873678389 0 0 0
615 198 5 0.417 -9.879386655231146 -21.956248159120577 -19.771758549283827 0 0 0
74 18 17 -0.834 -7.683793352935488 -18.674383845891075 -17.03509724613746 0 0 0
272 84 17 -0.834 -9.908953579076927 -18.657380726711672 -19.273452280799454 0 0 0
75 18 5 0.417 -7.921725632620199 -17.78198530431549 -17.26815205572921 0 0 0
76 18 5 0.417 -8.207904100665024 -19.31970160237809 -17.566961596905045 0 0 0
614 198 17 -0.834 -9.631847127036984 -21.457605697567907 -18.994242730533973 0 0 0
616 198 5 0.417 -8.934797631057231 -22.084053040443234 -18.811290391094303 0 0 0
274 84 5 0.417 -9.135358107327795 -18.451840459262105 -19.868588266056207 0 0 0
278 86 17 -0.834 -5.644125281818776 -17.11340338435292 -22.549026205134776 0 0 0
279 86 5 0.417 -5.447981979379403 -17.97255410549124 -22.281943626758423 0 0 0
1178 386 17 -0.834 -4.801178432179022 -19.58953076839936 -21.502954784076312 0 0 0
1180 386 5 0.417 -5.0864557724273185 -19.742846371508513 -20.548047803246153 0 0 0
611 197 17 -0.834 -4.733303864822147 -21.039992728207903 -18.938262847466994 0 0 0
280 86 5 0.417 -6.160066952879923 -16.69286877124871 -21.828870798488683 0 0 0
422 134 17 -0.834 -8.157114673464854 -21.51651372474424 -22.455604595398672 0 0 0
424 134 5 0.417 -8.189089453846082 -21.1546603492708 -23.393499190593182 0 0 0
8625 2868 5 0.417 -5.520239902130349 -21.87474627548694 -24.030326698690818 0 0 1
1179 386 5 0.417 -4.823403507833554 -20.48237327575352 -21.974520999666844 0 0 0
612 197 5 0.417 -4.178836870388186 -20.415712965433016 -18.416520031557745 0 0 0
3599 1193 17 -0.834 -4.661926217332942 -22.05336698385103 -22.474592116974673 0 1 0
96 25 5 0.417 -6.179897272410296 -22.036776646878714 -17.76300520590876 0 0 0
95 25 17 -0.834 -7.13129426573946 -21.84232980009453 -17.745637977205302 0 0 0
97 25 5 0.417 -7.18753335717024 -21.443090233803986 -16.873322746808956 0 0 0
8726 2902 17 -0.834 -3.507685881893079 -16.85437752624173 -17.131300075638222 0 0 1
613 197 5 0.417 -4.0822301919532995 -21.805058220174786 -19.027071799648766 0 0 0
3600 1193 5 0.417 -3.8858667070331303 -22.617170193606725 -22.719838780335994 0 1 0
423 134 5 0.417 -8.871819582806786 -22.206254841197673 -22.489138655029166 0 0 0
3601 1193 5 0.417 -5.009114669240985 -22.593368640576596 -21.70475845897532 0 1 0
1013 331 17 -0.834 -4.591200830539323 -24.023055507001487 -17.018047297853595 0 0 0
314 98 17 -0.834 -8.534565877458556 -18.736217887519608 -21.65019300286105 0 0 0
315 98 5 0.417 -8.366532543515266 -19.627493836426172 -21.684601468190817 0 0 0
316 98 5 0.417 -8.313589985670074 -18.4810399538011 -22.576845125410856 0 0 0
159 46 5 0.417 -7.643120784481356 -17.410481032134232 -20.735695433667722 0 0 0
158 46 17 -0.834 -7.14813791136258 -16.6939061390932 -20.312182895680884 0 0 0
2283 754 5 0.417 -6.523572623964998 -22.31955803861996 -19.869514091293922 0 1 0
1015 331 5 0.417 -4.154457095376922 -23.25037565279727 -16.499279417639013 0 0 0
8683 2887 5 0.417 -8.363054445994234 -23.909719002033274 -24.011628612551487 0 0 1
10539 3506 5 0.417 -9.717119812155357 -23.5802017817698 -21.919489877157343 0 1 1
8813 2931 17 -0.834 -8.849503485204577 -18.740855074921974 -24.374960480549483 0 0 1
10538 3506 17 -0.834 -10.021374475254163 -23.16771801393964 -21.09973950860879 0 1 1
2284 754 5 0.417 -7.276593122391155 -22.50987615693643 -21.106384510967807 0 1 0
2282 754 17 -0.834 -6.65221220829044 -23.016076850563426 -20.56744128727515 0 1 0
8814 2931 5 0.417 -9.448731977507778 -17.971811932745833 -24.424235957289312 0 0 1
8728 2902 5 0.417 -2.6821755439508594 -16.348865409769893 -16.915578036559282 0 0 1
1255 411 5 0.417 -2.772946589478818 -19.676642884567453 -16.776148990301884 0 0 0
1254 411 5 0.417 -3.256652515979774 -18.703445721752193 -17.641509432490295 0 0 0
1253 411 17 -0.834 -2.8265805963279944 -19.58515244444776 -17.75448764697702 0 0 0
1020 333 5 0.417 -0.007802084932839325 -19.9169169671516 -23.300544601137297 0 0 0
1019 333 17 -0.834 -0.371910044837042 -20.624003373452368 -22.762737411601634 0 0 0
1021 333 5 0.417 -0.8715111242917786 -20.040865568771608 -22.061510190096012 0 0 0
9225 3068 5 0.417 -0.2641032517604307 -17.895889827548192 -18.746499164057738 0 0 1
9224 3068 17 -0.834 0.4089246577244288 -18.33913223151972 -18.19003121805908 0 0 1
992 324 17 -0.834 2.695031825125113 -17.46809320740526 -22.357194421644692 0 0 0
3766 1248 5 0.417 -0.9776229775972791 -20.805557437581488 -17.73294627168321 0 1 0
3808 1262 5 0.417 -0.6634764644625668 -23.907451534222368 -21.66248606784249 0 1 0
870 283 5 0.417 0.7886641679417931 -21.93333659037076 -20.248611038929432 0 0 0
510 163 5 0.417 -2.55810534672666 -17.09455863975057 -19.258419736214066 0 0 0
509 163 17 -0.834 -1.8232187936535862 -17.031674509322595 -19.801437532076683 0 0 0
905 295 17 -0.834 2.5711432810571155 -18.466397238833302 -19.768430165746103 0 0 0
994 324 5 0.417 3.226882678705666 -18.249171793157632 -22.49401281786436 0 0 0
869 283 17 -0.834 0.2769377623107949 -22.545234254005585 -20.87418754387865 0 0 0
871 283 5 0.417 0.3995775868227632 -22.050927103899244 -21.700352249712644 0 0 0
3765 1248 5 0.417 0.31558026721814186 -21.054190308966426 -18.354498488852954 0 1 0
3764 1248 17 -0.834 -0.3207887248143457 -21.471423440086486 -17.694919692286078 0 1 0
9226 3068 5 0.417 1.2663620533792186 -18.021693565835804 -18.576716838174747 0 0 1
3771 1250 5 0.417 2.1046401130606625 -20.053266812111232 -19.482704786912194 0 1 0
511 163 5 0.417 -1.8587643402086889 -17.931189257132083 -20.219864906239767 0 0 0
1252 410 5 0.417 0.25388850478410874 -17.763985817203583 -16.540328945622953 0 0 0
907 295 5 0.417 2.3789203556427094 -18.069275396184647 -20.621083545086854 0 0 0
3772 1250 5 0.417 2.220754952094382 -21.029244375562804 -18.442419480589603 0 1 0
993 324 5 0.417 2.0941253376807003 -17.548117779598417 -23.06359677216075 0 0 0
987 322 5 0.417 -1.0787801145599938 -23.005424535583064 -18.27377689195327 0 0 0
913 297 5 0.417 -0.06360360680251922 -21.998016663897484 -23.605722582824086 0 0 0
3770 1250 17 -0.834 1.776221028688975 -20.983244598527552 -19.249125102328787 0 1 0
3807 1262 5 0.417 -0.7380245827760427 -24.157814327765497 -23.01426568544172 0 1 0
986 322 17 -0.834 -1.0730833428875108 -23.91031980250548 -18.680777287930802 0 0 0
3882 1287 5 0.417 2.6471988299364275 -23.41241208813386 -19.628891964241326 0 1 0
911 297 17 -0.834 0.03788457984620341 -22.92006843415965 -24.03550390155952 0 0 0
8827 2935 5 0.417 -3.1083844564864824 -19.09141796042149 -21.784807757291333 0 0 1
988 322 5 0.417 -0.34503575441764733 -23.67036497299285 -19.29614577194124 0 0 0
3713 1231 17 -0.834 -3.4875222671331105 -23.43769711686242 -19.634299730851932 0 1 0
3714 1231 5 0.417 -2.520582582203545 -23.552891234689643 -19.47162114380272 0 1 0
3881 1287 17 -0.834 2.6825280497243695 -24.399269971441615 -19.630389284169368 0 1 0
8825 2935 17 -0.834 -2.2070343498941103 -18.70804222262708 -21.89232962656304 0 0 1
8826 2935 5 0.417 -2.2977859457000136 -18.145744478742 -22.74631151307841 0 0 1
9155 3045 17 -0.834 -2.434075711069475 -17.361854110398642 -24.12890591813785 0 0 1
743 241 17 -0.834 0.8375844528075316 -17.980146039850947 -24.25990365238751 0 0 0
1064 348 17 -0.834 4.527461914115279 -19.4594901580282 -22.44684948578714 0 0 0
906 295 5 0.417 3.5415687309649684 -18.32727399393716 -19.775660443534854 0 0 0
3896 1292 17 -0.834 7.984825812835167 -24.227420395673988 -17.4907531426416 0 1 0
9125 3035 17 -0.834 8.165189589433739 -23.320143549771704 -21.265001843576623 0 0 1
9126 3035 5 0.417 8.746637193916209 -23.111425749176377 -20.489899603091303 0 0 1
929 303 17 -0.834 4.74348778143343 -21.330521809717723 -18.577303785687732 0 0 0
1160 380 17 -0.834 5.857002131610047 -16.426149837225765 -22.433316268717885 0 0 0
1161 380 5 0.417 5.8715522701037495 -17.174211787470732 -23.033253153652183 0 0 0
930 303 5 0.417 5.426545101464071 -20.74388254684128 -18.961025658866102 0 0 0
702 227 5 0.417 6.614498438887702 -20.882906732845807 -20.609481431976914 0 0 0
703 227 5 0.417 7.728647057776541 -20.881469330095342 -19.57911536923774 0 0 0
701 227 17 -0.834 7.003329943465649 -20.29559241368095 -19.934223317813107 0 0 0
1403 461 17 -0.834 9.37083522572669 -22.25600045911431 -18.841861331176943 0 0 0
1405 461 5 0.417 9.813236200956476 -21.866259844696092 -18.128870239561888 0 0 0
694 224 5 0.417 6.14368971827364 -18.46959529863056 -19.661711436042832 0 0 0
692 224 17 -0.834 5.350567040429599 -17.900456570117584 -19.60075266431547 0 0 0
693 224 5 0.417 5.556386092414022 -17.264009136343695 -20.305648103298896 0 0 0
9331 3103 5 0.417 9.155378649739685 -16.997751556611934 -22.043283229945544 0 0 1
1404 461 5 0.417 9.069380682543022 -23.080469394372756 -18.39074039591598 0 0 0
714 231 5 0.417 5.02792260415085 -21.38237694915985 -16.773375704273228 0 0 0
9329 3103 17 -0.834 9.904055496162654 -17.423238585111964 -22.614627349811663 0 0 1
9330 3103 5 0.417 10.444281137795725 -16.63960681313854 -22.79512191945098 0 0 1
10876 3618 5 0.417 6.549265351921957 -22.499601299568774 -21.93002910814696 0 1 1
10874 3618 17 -0.834 5.878805755769692 -21.86011026558013 -22.140167308377734 0 1 1
10875 3618 5 0.417 5.440552429564973 -22.26849612643069 -22.89935410538426 0 1 1
931 303 5 0.417 4.289675301448341 -21.6177659302942 -19.32954568447941 0 0 0
1066 348 5 0.417 5.099160244559823 -20.287703405138803 -22.334749815678663 0 0 0
1065 348 5 0.417 5.058903500553874 -18.90591392296147 -23.00117695369635 0 0 0
3756 1245 5 0.417 4.4730407213952095 -24.410173065605864 -23.351756035276612 0 1 0
3755 1245 17 -0.834 4.767973074888994 -23.73639989161769 -23.964862607357176 0 1 0
3757 1245 5 0.417 5.522391715496228 -24.13525769873504 -24.411135939631873 0 1 0
9137 3039 17 -0.834 8.508961513926822 -23.583573142761097 -24.43748529937719 0 0 1
9139 3039 5 0.417 9.337275552991844 -23.506829796943297 -23.9554629571024 0 0 1
3898 1292 5 0.417 7.200623925897846 -24.311041299090867 -18.066819939858686 0 1 0
9223 3067 5 0.417 10.15809607556459 -18.613407813620405 -23.77966669734127 0 0 1
9127 3035 5 0.417 8.826755892685554 -22.928073403937287 -21.930322872089764 0 0 1
9499 3159 5 0.417 16.808348619520565 -17.841452164733184 -23.74900789695875 0 0 1
9498 3159 5 0.417 15.551367768126251 -18.524298332071176 -24.284238761032622 0 0 1
1411 463 5 0.417 10.658480297679658 -21.565186230147678 -21.47736824271598 0 0 0
1409 463 17 -0.834 10.501109091113927 -22.31272320070926 -22.062710597263035 0 0 0
1410 463 5 0.417 10.744796428411057 -21.86365596150938 -22.940361250945447 0 0 0
969 316 5 0.417 10.865559922399065 -18.83244937508472 -22.124164480164843 0 0 0
968 316 17 -0.834 11.382540552722412 -19.536821249050096 -21.716661042580558 0 0 0
970 316 5 0.417 11.839933247778346 -19.08859983497523 -20.9926836274777 0 0 0
9387 3122 5 0.417 13.00368280297781 -19.4681965206091 -23.225964039467637 0 0 1
9386 3122 17 -0.834 13.873361549599935 -19.353388078779492 -23.628495768847475 0 0 1
670 216 5 0.417 11.925376472559064 -16.84319122010235 -19.865198099643056 0 0 0
668 216 17 -0.834 12.537430396530338 -17.514306336561294 -20.22535210688564 0 0 0
1597 525 5 0.417 17.116690618796728 -22.635962576132908 -19.149258904435563 0 0 0
1431 470 5 0.417 12.911490439225881 -22.146487727302432 -24.46376692857762 0 0 0
1432 470 5 0.417 13.290835917307678 -22.690244583574373 -23.10757783481859 0 0 0
1430 470 17 -0.834 13.581024582204677 -22.005255209932706 -23.761626651160388 0 0 0
9217 3065 5 0.417 15.26790317847252 -18.523573454718974 -17.446055475981034 0 0 1
9216 3065 5 0.417 16.724975436972414 -18.61390307954453 -16.996862121761243 0 0 1
9215 3065 17 -0.834 16.035116197126385 -17.9416754509013 -17.353966164142946 0 0 1
1584 521 5 0.417 12.993946885878481 -19.184253495240384 -17.16240111295245 0 0 0
1421 467 17 -0.834 16.111471947610813 -21.935772252928988 -22.24160624503678 0 0 0
1645 541 5 0.417 16.150308690275928 -22.99362708291095 -16.591370330489337 0 0 0
1422 467 5 0.417 15.958510583610096 -21.894198432101994 -23.18759441216295 0 0 0
669 216 5 0.417 12.835872037240138 -18.014898425329775 -19.456743193364755 0 0 0
9322 3100 5 0.417 13.822913609786212 -16.528245614753978 -21.19799691931215 0 0 1
1637 539 17 -0.834 17.254534529279617 -20.724850318322833 -19.16961312186257 0 0 0
1583 521 17 -0.834 13.112955798095967 -18.387741744753725 -17.707760683551964 0 0 0
9382 3120 5 0.417 15.977650027029975 -20.174434345752434 -21.68960043186535 0 0 1
9380 3120 17 -0.834 15.895652673258237 -19.244392146757175 -21.396206622690503 0 0 1
1639 539 5 0.417 16.907111293169386 -20.170089597029044 -19.94160996835315 0 0 0
1594 524 5 0.417 13.610295542193972 -23.369130930135167 -20.640209373911166 0 0 0
1592 524 17 -0.834 13.716289451600574 -23.64221096101107 -21.524470427338983 0 0 0
3879 1286 5 0.417 11.315419602362383 -21.281974403908237 -16.469802778159824 0 1 0
1585 521 5 0.417 12.520716679892162 -17.80350062854648 -17.210341508914556 0 0 0
9381 3120 5 0.417 15.447178984697565 -18.80764253354033 -22.150978007658054 0 0 1
9351 3110 5 0.417 17.167965856290376 -18.13430677874866 -21.503119236443833 0 0 1
1444 474 5 0.417 16.697719886721025 -16.41094353722899 -20.034268534959725 0 0 0
1443 474 5 0.417 16.285735630142426 -16.43651633535839 -18.543232269110437 0 0 0
3704 1228 17 -0.834 13.744551374041988 -24.35333888732242 -16.446323198533786 0 1 0
9497 3159 17 -0.834 16.494576870366302 -18.619374075180826 -24.211524664409286 0 0 1
3778 1252 5 0.417 13.572509331195773 -21.812707773536005 -18.748386127628223 0 1 0
9388 3122 5 0.417 14.114718521096826 -20.348067184988313 -23.624733631945475 0 0 1
3776 1252 17 -0.834 13.377176134029893 -22.743825358234435 -19.003124440306685 0 1 0
1593 524 5 0.417 14.21221059137245 -24.48496404966619 -21.31098196976016 0 0 0
9235 3071 5 0.417 10.825087992044388 -23.989752031001256 -21.546932468087498 0 0 1
3777 1252 5 0.417 13.480501814935417 -23.304339230232046 -18.16219417382191 0 1 0
1423 467 5 0.417 15.429732369525398 -22.58366199888378 -21.93402679215864 0 0 0
1595 525 17 -0.834 17.134794492403703 -23.619136094814916 -19.028441544212715 0 0 0
1596 525 5 0.417 16.715500009528732 -23.863574787899303 -19.863575758005542 0 0 0
10641 3540 5 0.417 24.122758039116498 -22.253638888634438 -20.606925017999725 -1 1 1
4172 1384 17 -0.834 24.18954831439141 -24.11761694995217 -22.789909407561442 0 1 0
8590 2856 5 0.417 23.332012472833178 -20.09545716870371 -21.404490287852184 -1 0 1
1572 517 5 0.417 23.800098219442507 -20.069022167200735 -17.980819702367995 0 0 0
4173 1384 5 0.417 23.234532274343398 -24.304048435390293 -22.498189248219774 0 1 0
8588 2856 17 -0.834 24.23838513473052 -19.93398587447736 -21.130353447296116 -1 0 1
1638 539 5 0.417 17.504245836128707 -19.99514768728531 -18.55467415924423 0 0 0
9350 3110 17 -0.834 17.96508325488929 -17.528857141066645 -21.413260936008538 0 0 1
9438 3139 5 0.417 19.49217424144153 -20.52528763513265 -18.35393158468158 0 0 1
1389 456 5 0.417 21.76582579038826 -20.46375820400736 -16.570361123295278 0 0 0
229 69 5 0.417 19.235824444664342 -23.064898074732536 -16.735007349748972 -1 0 0
1390 456 5 0.417 21.61813102282099 -21.474211769301153 -17.708555608050748 0 0 0
1388 456 17 -0.834 22.290170603418257 -21.026816758273238 -17.15074388938069 0 0 0
3654 1211 5 0.417 21.361622639245272 -21.62152087121981 -19.97663854905394 -1 1 0
3655 1211 5 0.417 21.597082033709796 -22.24666883792073 -21.388409146214883 -1 1 0
3653 1211 17 -0.834 22.045797772839688 -21.756429957027482 -20.6379209702577 -1 1 0
9439 3139 5 0.417 19.308203678637916 -21.90614723849509 -19.040633800992318 0 0 1
9437 3139 17 -0.834 19.95800107728551 -21.114749223494464 -19.025720692785228 0 0 1
232 70 5 0.417 21.158398036868842 -20.15426188035177 -21.150191988320387 -1 0 0
3392 1124 17 -0.834 21.346727050528365 -23.59832613717794 -22.606169733810034 -1 1 0
11020 3666 5 0.417 18.106298689621287 -22.42545283644845 -21.90880116163846 0 1 1
9368 3116 17 -0.834 20.548768805236964 -24.264157746007722 -17.38499750139812 0 0 1
11018 3666 17 -0.834 18.817794816371187 -23.033377787617137 -21.80053394873567 0 1 1
11019 3666 5 0.417 18.43956242266979 -23.95048570415746 -21.932648766617724 0 1 1
3393 1124 5 0.417 20.40176125854395 -23.585453090671045 -22.309058489817556 -1 1 0
1509 496 5 0.417 19.23281956154931 -18.409828547713914 -17.985039863099097 0 0 0
1508 496 17 -0.834 18.786021835100136 -19.043984178603417 -17.416562679410426 0 0 0
1510 496 5 0.417 19.23071120989453 -18.790305360240236 -16.51990556767059 0 0 0
9270 3083 5 0.417 21.006468898861407 -17.964725506459903 -23.27783929595863 0 0 1
3394 1124 5 0.417 21.262480825618447 -23.456622847242 -23.538141201334525 -1 1 0
231 70 5 0.417 20.572826475246135 -18.925081738454825 -20.638148309280297 -1 0 0
230 70 17 -0.834 21.021939368385798 -19.228194140564707 -21.42100090001479 -1 0 0
9408 3129 5 0.417 23.967465139488187 -17.635423274309268 -22.345535370269644 0 0 1
9415 3131 5 0.417 20.382900059405486 -16.56431451562445 -19.45088739894235 0 0 1
9413 3131 17 -0.834 19.638756070473633 -17.037558209336506 -18.992506116014237 0 0 1
9414 3131 5 0.417 19.142047447224183 -17.329622089048748 -19.769907534617595 0 0 1
9352 3110 5 0.417 18.054296170607618 -16.9973624081267 -22.261620144705965 0 0 1
9269 3083 17 -0.834 21.08415048221614 -17.0313564090991 -23.46853514812886 0 0 1
9271 3083 5 0.417 20.166920334663498 -16.777704154520876 -23.242326532229104 0 0 1
9460 3146 5 0.417 21.816322546917586 -16.660524815743514 -21.291232171118534 0 0 1
9407 3129 17 -0.834 24.32461709981527 -17.232226429021004 -23.13952908318227 0 0 1
1339 439 5 0.417 23.697097896382147 -22.542041080532297 -17.47496445808355 0 0 0
1337 439 17 -0.834 24.066290980956214 -23.112089616603182 -16.814689570167044 0 0 0
1573 517 5 0.417 24.20053934012674 -19.966205635051352 -19.47857553294871 0 0 0
1418 466 17 -0.834 -22.084707586460134 -15.250355302058296 -17.523452366552718 1 0 0
1416 465 5 0.417 -20.982752811633542 -16.09324427523341 -23.836960227087964 1 0 0
3325 1101 5 0.417 -17.962613600460543 -16.00746560143834 -19.26837737014695 0 1 0
3323 1101 17 -0.834 -17.511401947491823 -16.332815950666497 -20.02155173517385 0 1 0
1476 485 5 0.417 -20.86205909133637 -15.487666658093795 -20.40950365057487 1 0 0
43 7 5 0.417 -20.447885625721298 -15.494567314982884 -17.55671111287847 0 0 0
41 7 17 -0.834 -19.525314486530103 -15.434300383295183 -17.94720817780833 0 0 0
42 7 5 0.417 -19.77315596968023 -14.87736430979793 -18.686753813100434 0 0 0
1419 466 5 0.417 -22.451905442107215 -14.51659508016459 -16.980522624018008 1 0 0
267 82 5 0.417 -17.98387617942114 -11.550050802462847 -18.822233521296038 0 0 0
266 82 17 -0.834 -18.64506337406964 -11.552218658452231 -19.581932707372886 0 0 0
350 110 17 -0.834 -20.389437935710095 -13.78658122063913 -20.233588540056378 0 0 0
1420 466 5 0.417 -22.940618350818184 -15.510135358304632 -17.9526237259234 1 0 0
1456 478 5 0.417 -18.994490771441956 -11.096861912600401 -16.983036402580517 1 0 0
351 110 5 0.417 -21.039302177569528 -13.358661644027348 -20.80442927518321 0 0 0
9362 3114 17 -0.834 -21.01588757012407 -9.912877453807525 -24.024555945301238 1 0 1
268 82 5 0.417 -18.046547908530908 -11.090356535965592 -20.207111443807026 0 0 0
352 110 5 0.417 -19.79456439289991 -13.078850525177414 -20.034520400706032 0 0 0
9364 3114 5 0.417 -21.580983407813125 -10.653146552814004 -24.12805782805282 1 0 1
8824 2934 5 0.417 -22.73596183464408 -12.132159379092478 -18.715445834194448 0 0 1
8822 2934 17 -0.834 -23.086772906039272 -11.486744992714211 -19.29157688437083 0 0 1
92 24 17 -0.834 -20.478483075882053 -9.562287011787147 -19.678868395335762 0 0 0
1538 506 17 -0.834 -22.506735923973334 -12.674567453859687 -21.621312634009445 1 0 0
1539 506 5 0.417 -22.4918754582573 -12.43399967885184 -22.550024425271012 1 0 0
1540 506 5 0.417 -23.055080216635062 -13.489217749838119 -21.7088124005442 1 0 0
8707 2895 5 0.417 -18.758772527069446 -14.994633404616422 -23.473763299717323 0 0 1
94 24 5 0.417 -20.01097346678177 -10.38204118903332 -19.48998246166622 0 0 0
8653 2877 5 0.417 -20.33191835953576 -8.687639886251292 -22.766981935291902 0 0 1
1373 451 17 -0.834 -23.07969339831721 -8.868984522464695 -20.280238672459962 1 0 0
1375 451 5 0.417 -22.182707753246227 -8.675000219565245 -20.488070380326576 1 0 0
1374 451 5 0.417 -22.966780262043244 -9.738292122272082 -19.91100240469002 1 0 0
1396 458 5 0.417 -18.602766671380078 -14.188767758493817 -21.465046143389976 1 0 0
1394 458 17 -0.834 -17.7374272201902 -14.308520851397377 -21.85610075690076 1 0 0
1454 478 17 -0.834 -18.380351584540698 -10.326052945367758 -16.78661454616825 1 0 0