4
# CELL(abcABC): 1000.00000  1000.00000  1000.00000    90.00000    90.00000    90.00000  Step:           0  Bead:       0 positions{angstrom}  cell{angstrom}
       O -3.11886e+00  1.07137e+00  3.55910e-01
       H -3.08121e+00  1.31708e-01  5.05403e-01
       H -3.57972e+00  1.51956e+00  1.08709e+00
       H -3.21808e+00  1.41282e+00 -5.56327e-01
4
# CELL(abcABC): 1000.00000  1000.00000  1000.00000    90.00000    90.00000    90.00000  Step:           1  Bead:       0 positions{angstrom}  cell{angstrom}
       O -3.11735e+00  1.07172e+00  3.55277e-01
       H -3.09054e+00  1.24364e-01  5.10684e-01
       H -3.57829e+00  1.51795e+00  1.08810e+00
       H -3.23415e+00  1.41622e+00 -5.52570e-01
4
# CELL(abcABC): 1000.00000  1000.00000  1000.00000    90.00000    90.00000    90.00000  Step:           2  Bead:       0 positions{angstrom}  cell{angstrom}
       O -3.11628e+00  1.07210e+00  3.54487e-01
       H -3.09924e+00  1.17985e-01  5.18252e-01
       H -3.57270e+00  1.51460e+00  1.08880e+00
       H -3.24805e+00  1.41991e+00 -5.48293e-01
4
# CELL(abcABC): 1000.00000  1000.00000  1000.00000    90.00000    90.00000    90.00000  Step:           3  Bead:       0 positions{angstrom}  cell{angstrom}
       O -3.11551e+00  1.07249e+00  3.53487e-01
       H -3.10655e+00  1.12113e-01  5.29076e-01
       H -3.56499e+00  1.51100e+00  1.09006e+00
       H -3.26060e+00  1.42320e+00 -5.44515e-01
4
# CELL(abcABC): 1000.00000  1000.00000  1000.00000    90.00000    90.00000    90.00000  Step:           4  Bead:       0 positions{angstrom}  cell{angstrom}
       O -3.11511e+00  1.07283e+00  3.52451e-01
       H -3.11311e+00  1.07585e-01  5.39929e-01
       H -3.55451e+00  1.50721e+00  1.09114e+00
       H -3.27097e+00  1.42615e+00 -5.40003e-01
4
# CELL(abcABC): 1000.00000  1000.00000  1000.00000    90.00000    90.00000    90.00000  Step:           5  Bead:       0 positions{angstrom}  cell{angstrom}
       O -3.11492e+00  1.07288e+00  3.51346e-01
       H -3.11938e+00  1.06263e-01  5.51272e-01
       H -3.54286e+00  1.50428e+00  1.09396e+00
       H -3.27926e+00  1.42953e+00 -5.36620e-01
4
# CELL(abcABC): 1000.00000  1000.00000  1000.00000    90.00000    90.00000    90.00000  Step:           6  Bead:       0 positions{angstrom}  cell{angstrom}
       O -3.11493e+00  1.07280e+00  3.50180e-01
       H -3.12443e+00  1.08650e-01  5.62100e-01
       H -3.53031e+00  1.49991e+00  1.09682e+00
       H -3.28658e+00  1.43279e+00 -5.31800e-01
4
# CELL(abcABC): 1000.00000  1000.00000  1000.00000    90.00000    90.00000    90.00000  Step:           7  Bead:       0 positions{angstrom}  cell{angstrom}
       O -3.11528e+00  1.07239e+00  3.48722e-01
       H -3.12677e+00  1.14350e-01  5.74372e-01
       H -3.51669e+00  1.49574e+00  1.10193e+00
       H -3.29230e+00  1.43777e+00 -5.26045e-01
4
# CELL(abcABC): 1000.00000  1000.00000  1000.00000    90.00000    90.00000    90.00000  Step:           8  Bead:       0 positions{angstrom}  cell{angstrom}
       O -3.11600e+00  1.07177e+00  3.47226e-01
       H -3.12673e+00  1.22877e-01  5.85916e-01
       H -3.50100e+00  1.49146e+00  1.10803e+00
       H -3.29661e+00  1.44335e+00 -5.19928e-01
4
# CELL(abcABC): 1000.00000  1000.00000  1000.00000    90.00000    90.00000    90.00000  Step:           9  Bead:       0 positions{angstrom}  cell{angstrom}
       O -3.11704e+00  1.07105e+00  3.45508e-01
       H -3.12514e+00  1.32537e-01  5.98361e-01
       H -3.48335e+00  1.48836e+00  1.11652e+00
       H -3.29939e+00  1.44823e+00 -5.13601e-01
4
# CELL(abcABC): 1000.00000  1000.00000  1000.00000    90.00000    90.00000    90.00000  Step:          10  Bead:       0 positions{angstrom}  cell{angstrom}
       O -3.11835e+00  1.07013e+00  3.43838e-01
       H -3.12177e+00  1.43186e-01  6.09685e-01
       H -3.46461e+00  1.48708e+00  1.12597e+00
       H -3.30070e+00  1.45356e+00 -5.07867e-01
4
# CELL(abcABC): 1000.00000  1000.00000  1000.00000    90.00000    90.00000    90.00000  Step:          11  Bead:       0 positions{angstrom}  cell{angstrom}
       O -3.11993e+00  1.06914e+00  3.42263e-01
       H -3.11639e+00  1.54464e-01  6.19291e-01
       H -3.44622e+00  1.48665e+00  1.13641e+00
       H -3.29948e+00  1.45830e+00 -5.02913e-01
4
# CELL(abcABC): 1000.00000  1000.00000  1000.00000    90.00000    90.00000    90.00000  Step:          12  Bead:       0 positions{angstrom}  cell{angstrom}
       O -3.12191e+00  1.06825e+00  3.40755e-01
       H -3.10787e+00  1.64266e-01  6.28202e-01
       H -3.42693e+00  1.48602e+00  1.14673e+00
       H -3.29581e+00  1.46339e+00 -4.98202e-01
4
# CELL(abcABC): 1000.00000  1000.00000  1000.00000    90.00000    90.00000    90.00000  Step:          13  Bead:       0 positions{angstrom}  cell{angstrom}
       O -3.12423e+00  1.06747e+00  3.39252e-01
       H -3.09742e+00  1.72328e-01  6.37073e-01
       H -3.40539e+00  1.48615e+00  1.15747e+00
       H -3.29089e+00  1.46753e+00 -4.93960e-01
4
# CELL(abcABC): 1000.00000  1000.00000  1000.00000    90.00000    90.00000    90.00000  Step:          14  Bead:       0 positions{angstrom}  cell{angstrom}
       O -3.12689e+00  1.06684e+00  3.37770e-01
       H -3.08379e+00  1.77035e-01  6.46168e-01
       H -3.38241e+00  1.48768e+00  1.16809e+00
       H -3.28533e+00  1.47132e+00 -4.90144e-01
4
# CELL(abcABC): 1000.00000  1000.00000  1000.00000    90.00000    90.00000    90.00000  Step:          15  Bead:       0 positions{angstrom}  cell{angstrom}
       O -3.12973e+00  1.06628e+00  3.36168e-01
       H -3.07043e+00  1.77971e-01  6.57203e-01
       H -3.35918e+00  1.49041e+00  1.17826e+00
       H -3.27686e+00  1.47647e+00 -4.85931e-01
4
# CELL(abcABC): 1000.00000  1000.00000  1000.00000    90.00000    90.00000    90.00000  Step:          16  Bead:       0 positions{angstrom}  cell{angstrom}
       O -3.13282e+00  1.06582e+00  3.34719e-01
       H -3.05457e+00  1.75726e-01  6.67443e-01
       H -3.33540e+00  1.49472e+00  1.18723e+00
       H -3.26738e+00  1.48172e+00 -4.82144e-01
4
# CELL(abcABC): 1000.00000  1000.00000  1000.00000    90.00000    90.00000    90.00000  Step:          17  Bead:       0 positions{angstrom}  cell{angstrom}
       O -3.13599e+00  1.06547e+00  3.33484e-01
       H -3.03684e+00  1.72026e-01  6.77060e-01
       H -3.31211e+00  1.50004e+00  1.19338e+00
       H -3.25813e+00  1.48561e+00 -4.78288e-01
4
# CELL(abcABC): 1000.00000  1000.00000  1000.00000    90.00000    90.00000    90.00000  Step:          18  Bead:       0 positions{angstrom}  cell{angstrom}
       O -3.13922e+00  1.06510e+00  3.32524e-01
       H -3.01935e+00  1.68324e-01  6.85557e-01
       H -3.28741e+00  1.50553e+00  1.19710e+00
       H -3.24900e+00  1.48978e+00 -4.75287e-01
4
# CELL(abcABC): 1000.00000  1000.00000  1000.00000    90.00000    90.00000    90.00000  Step:          19  Bead:       0 positions{angstrom}  cell{angstrom}
       O -3.14259e+00  1.06478e+00  3.31876e-01
       H -3.00104e+00  1.64672e-01  6.92768e-01
       H -3.26345e+00  1.51047e+00  1.19756e+00
       H -3.23786e+00  1.49357e+00 -4.72668e-01
4
# CELL(abcABC): 1000.00000  1000.00000  1000.00000    90.00000    90.00000    90.00000  Step:          20  Bead:       0 positions{angstrom}  cell{angstrom}
       O -3.14593e+00  1.06446e+00  3.31648e-01
       H -2.98263e+00  1.62571e-01  6.96397e-01
       H -3.24070e+00  1.51551e+00  1.19566e+00
       H -3.22599e+00  1.49568e+00 -4.70764e-01
4
# CELL(abcABC): 1000.00000  1000.00000  1000.00000    90.00000    90.00000    90.00000  Step:          21  Bead:       0 positions{angstrom}  cell{angstrom}
       O -3.14927e+00  1.06406e+00  3.31869e-01
       H -2.96504e+00  1.61709e-01  6.96346e-01
       H -3.21687e+00  1.52113e+00  1.19228e+00
       H -3.21433e+00  1.49723e+00 -4.70850e-01
4
# CELL(abcABC): 1000.00000  1000.00000  1000.00000    90.00000    90.00000    90.00000  Step:          22  Bead:       0 positions{angstrom}  cell{angstrom}
       O -3.15257e+00  1.06349e+00  3.32563e-01
       H -2.94936e+00  1.62100e-01  6.94590e-01
       H -3.19159e+00  1.52709e+00  1.18516e+00
       H -3.20303e+00  1.50005e+00 -4.72981e-01
4
# CELL(abcABC): 1000.00000  1000.00000  1000.00000    90.00000    90.00000    90.00000  Step:          23  Bead:       0 positions{angstrom}  cell{angstrom}
       O -3.15573e+00  1.06277e+00  3.33787e-01
       H -2.93467e+00  1.65354e-01  6.89625e-01
       H -3.16621e+00  1.53380e+00  1.17686e+00
       H -3.19281e+00  1.50139e+00 -4.79161e-01
4
# CELL(abcABC): 1000.00000  1000.00000  1000.00000    90.00000    90.00000    90.00000  Step:          24  Bead:       0 positions{angstrom}  cell{angstrom}
       O -3.15873e+00  1.06184e+00  3.35306e-01
       H -2.92080e+00  1.69794e-01  6.82139e-01
       H -3.14134e+00  1.54203e+00  1.16790e+00
       H -3.18392e+00  1.50357e+00 -4.86826e-01
4
# CELL(abcABC): 1000.00000  1000.00000  1000.00000    90.00000    90.00000    90.00000  Step:          25  Bead:       0 positions{angstrom}  cell{angstrom}
       O -3.16147e+00  1.06088e+00  3.36953e-01
       H -2.90855e+00  1.75068e-01  6.73368e-01
       H -3.11782e+00  1.55015e+00  1.15880e+00
       H -3.17635e+00  1.50537e+00 -4.95082e-01
4
# CELL(abcABC): 1000.00000  1000.00000  1000.00000    90.00000    90.00000    90.00000  Step:          26  Bead:       0 positions{angstrom}  cell{angstrom}
       O -3.16393e+00  1.05993e+00  3.38718e-01
       H -2.89794e+00  1.80997e-01  6.62231e-01
       H -3.09507e+00  1.55856e+00  1.14969e+00
       H -3.17062e+00  1.50607e+00 -5.02866e-01
4
# CELL(abcABC): 1000.00000  1000.00000  1000.00000    90.00000    90.00000    90.00000  Step:          27  Bead:       0 positions{angstrom}  cell{angstrom}
       O -3.16622e+00  1.05895e+00  3.40582e-01
       H -2.88912e+00  1.88492e-01  6.49270e-01
       H -3.07343e+00  1.56669e+00  1.14089e+00
       H -3.16469e+00  1.50612e+00 -5.10683e-01
4
# CELL(abcABC): 1000.00000  1000.00000  1000.00000    90.00000    90.00000    90.00000  Step:          28  Bead:       0 positions{angstrom}  cell{angstrom}
       O -3.16819e+00  1.05801e+00  3.42385e-01
       H -2.88276e+00  1.94082e-01  6.35581e-01
       H -3.05240e+00  1.57543e+00  1.13330e+00
       H -3.16082e+00  1.50669e+00 -5.18037e-01
4
# CELL(abcABC): 1000.00000  1000.00000  1000.00000    90.00000    90.00000    90.00000  Step:          29  Bead:       0 positions{angstrom}  cell{angstrom}
       O -3.16992e+00  1.05714e+00  3.44153e-01
       H -2.87691e+00  1.98679e-01  6.20439e-01
       H -3.03355e+00  1.58441e+00  1.12679e+00
       H -3.15798e+00  1.50684e+00 -5.24442e-01
4
# CELL(abcABC): 1000.00000  1000.00000  1000.00000    90.00000    90.00000    90.00000  Step:          30  Bead:       0 positions{angstrom}  cell{angstrom}
       O -3.17141e+00  1.05635e+00  3.45793e-01
       H -2.87159e+00  2.02082e-01  6.06544e-01
       H -3.01630e+00  1.59333e+00  1.12171e+00
       H -3.15700e+00  1.50704e+00 -5.31501e-01
4
# CELL(abcABC): 1000.00000  1000.00000  1000.00000    90.00000    90.00000    90.00000  Step:          31  Bead:       0 positions{angstrom}  cell{angstrom}
       O -3.17278e+00  1.05570e+00  3.47377e-01
       H -2.86537e+00  2.02724e-01  5.93777e-01
       H -2.99990e+00  1.60297e+00  1.11680e+00
       H -3.15782e+00  1.50720e+00 -5.38965e-01
4
# CELL(abcABC): 1000.00000  1000.00000  1000.00000    90.00000    90.00000    90.00000  Step:          32  Bead:       0 positions{angstrom}  cell{angstrom}
       O -3.17388e+00  1.05542e+00  3.48657e-01
       H -2.86061e+00  1.98278e-01  5.82870e-01
       H -2.98457e+00  1.61302e+00  1.11362e+00
       H -3.16044e+00  1.50590e+00 -5.45203e-01
4
# CELL(abcABC): 1000.00000  1000.00000  1000.00000    90.00000    90.00000    90.00000  Step:          33  Bead:       0 positions{angstrom}  cell{angstrom}
       O -3.17470e+00  1.05559e+00  3.49720e-01
       H -2.85708e+00  1.90309e-01  5.74539e-01
       H -2.97063e+00  1.62067e+00  1.11103e+00
       H -3.16493e+00  1.50359e+00 -5.51153e-01
4
# CELL(abcABC): 1000.00000  1000.00000  1000.00000    90.00000    90.00000    90.00000  Step:          34  Bead:       0 positions{angstrom}  cell{angstrom}
       O -3.17508e+00  1.05608e+00  3.50794e-01
       H -2.85414e+00  1.80204e-01  5.67304e-01
       H -2.96039e+00  1.62597e+00  1.10858e+00
       H -3.17203e+00  1.50065e+00 -5.58500e-01
4
# CELL(abcABC): 1000.00000  1000.00000  1000.00000    90.00000    90.00000    90.00000  Step:          35  Bead:       0 positions{angstrom}  cell{angstrom}
       O -3.17517e+00  1.05677e+00  3.51799e-01
       H -2.85089e+00  1.69220e-01  5.60416e-01
       H -2.95330e+00  1.63008e+00  1.10651e+00
       H -3.18096e+00  1.49660e+00 -5.65495e-01
4
# CELL(abcABC): 1000.00000  1000.00000  1000.00000    90.00000    90.00000    90.00000  Step:          36  Bead:       0 positions{angstrom}  cell{angstrom}
       O -3.17494e+00  1.05753e+00  3.52762e-01
       H -2.84918e+00  1.58715e-01  5.53916e-01
       H -2.94801e+00  1.63323e+00  1.10332e+00
       H -3.19161e+00  1.49185e+00 -5.71100e-01
4
# CELL(abcABC): 1000.00000  1000.00000  1000.00000    90.00000    90.00000    90.00000  Step:          37  Bead:       0 positions{angstrom}  cell{angstrom}
       O -3.17442e+00  1.05843e+00  3.53545e-01
       H -2.84890e+00  1.50618e-01  5.49973e-01
       H -2.94402e+00  1.63351e+00  1.09953e+00
       H -3.20424e+00  1.48529e+00 -5.75794e-01
4
# CELL(abcABC): 1000.00000  1000.00000  1000.00000    90.00000    90.00000    90.00000  Step:          38  Bead:       0 positions{angstrom}  cell{angstrom}
       O -3.17339e+00  1.05935e+00  3.54397e-01
       H -2.85186e+00  1.44750e-01  5.45573e-01
       H -2.94150e+00  1.63061e+00  1.09570e+00
       H -3.22013e+00  1.47946e+00 -5.81089e-01
4
# CELL(abcABC): 1000.00000  1000.00000  1000.00000    90.00000    90.00000    90.00000  Step:          39  Bead:       0 positions{angstrom}  cell{angstrom}
       O -3.17220e+00  1.06035e+00  3.55005e-01
       H -2.85635e+00  1.41228e-01  5.42428e-01
       H -2.93976e+00  1.62485e+00  1.09360e+00
       H -3.23616e+00  1.47286e+00 -5.85493e-01
4
# CELL(abcABC): 1000.00000  1000.00000  1000.00000    90.00000    90.00000    90.00000  Step:          40  Bead:       0 positions{angstrom}  cell{angstrom}
       O -3.17078e+00  1.06122e+00  3.55235e-01
       H -2.86300e+00  1.41024e-01  5.41017e-01
       H -2.93854e+00  1.61800e+00  1.09465e+00
       H -3.25331e+00  1.46620e+00 -5.88779e-01
4
# CELL(abcABC): 1000.00000  1000.00000  1000.00000    90.00000    90.00000    90.00000  Step:          41  Bead:       0 positions{angstrom}  cell{angstrom}
       O -3.16911e+00  1.06194e+00  3.55180e-01
       H -2.87195e+00  1.44586e-01  5.39997e-01
       H -2.93724e+00  1.61064e+00  1.09797e+00
       H -3.27218e+00  1.45850e+00 -5.90224e-01
4
# CELL(abcABC): 1000.00000  1000.00000  1000.00000    90.00000    90.00000    90.00000  Step:          42  Bead:       0 positions{angstrom}  cell{angstrom}
       O -3.16735e+00  1.06271e+00  3.54923e-01
       H -2.88109e+00  1.48709e-01  5.39547e-01
       H -2.93601e+00  1.60270e+00  1.10388e+00
       H -3.29225e+00  1.45018e+00 -5.91594e-01
4
# CELL(abcABC): 1000.00000  1000.00000  1000.00000    90.00000    90.00000    90.00000  Step:          43  Bead:       0 positions{angstrom}  cell{angstrom}
       O -3.16541e+00  1.06336e+00  3.54422e-01
       H -2.89176e+00  1.55341e-01  5.39695e-01
       H -2.93487e+00  1.59559e+00  1.11225e+00
       H -3.31354e+00  1.44037e+00 -5.92161e-01
4
# CELL(abcABC): 1000.00000  1000.00000  1000.00000    90.00000    90.00000    90.00000  Step:          44  Bead:       0 positions{angstrom}  cell{angstrom}
       O -3.16331e+00  1.06406e+00  3.53683e-01
       H -2.90301e+00  1.61911e-01  5.40271e-01
       H -2.93386e+00  1.58750e+00  1.12205e+00
       H -3.33653e+00  1.43074e+00 -5.90813e-01
4
# CELL(abcABC): 1000.00000  1000.00000  1000.00000    90.00000    90.00000    90.00000  Step:          45  Bead:       0 positions{angstrom}  cell{angstrom}
       O -3.16103e+00  1.06488e+00  3.52796e-01
       H -2.91515e+00  1.68085e-01  5.41314e-01
       H -2.93240e+00  1.57809e+00  1.13250e+00
       H -3.36209e+00  1.42087e+00 -5.88215e-01
4
# CELL(abcABC): 1000.00000  1000.00000  1000.00000    90.00000    90.00000    90.00000  Step:          46  Bead:       0 positions{angstrom}  cell{angstrom}
       O -3.15873e+00  1.06590e+00  3.51765e-01
       H -2.92723e+00  1.73205e-01  5.43116e-01
       H -2.93131e+00  1.56708e+00  1.14343e+00
       H -3.38754e+00  1.41059e+00 -5.84594e-01
4
# CELL(abcABC): 1000.00000  1000.00000  1000.00000    90.00000    90.00000    90.00000  Step:          47  Bead:       0 positions{angstrom}  cell{angstrom}
       O -3.15639e+00  1.06703e+00  3.50720e-01
       H -2.93874e+00  1.75401e-01  5.46364e-01
       H -2.93033e+00  1.55552e+00  1.15397e+00
       H -3.41419e+00  1.40199e+00 -5.81786e-01
4
# CELL(abcABC): 1000.00000  1000.00000  1000.00000    90.00000    90.00000    90.00000  Step:          48  Bead:       0 positions{angstrom}  cell{angstrom}
       O -3.15404e+00  1.06849e+00  3.49562e-01
       H -2.94898e+00  1.73369e-01  5.51015e-01
       H -2.92961e+00  1.54386e+00  1.16381e+00
       H -3.44206e+00  1.39250e+00 -5.77901e-01
4
# CELL(abcABC): 1000.00000  1000.00000  1000.00000    90.00000    90.00000    90.00000  Step:          49  Bead:       0 positions{angstrom}  cell{angstrom}
       O -3.15174e+00  1.07016e+00  3.48233e-01
       H -2.95833e+00  1.67871e-01  5.57097e-01
       H -2.92792e+00  1.53135e+00  1.17342e+00
       H -3.47084e+00  1.38401e+00 -5.72488e-01
4
# CELL(abcABC): 1000.00000  1000.00000  1000.00000    90.00000    90.00000    90.00000  Step:          50  Bead:       0 positions{angstrom}  cell{angstrom}
       O -3.14930e+00  1.07204e+00  3.46995e-01
       H -2.96729e+00  1.60297e-01  5.63337e-01
       H -2.92814e+00  1.51775e+00  1.18242e+00
       H -3.50041e+00  1.37545e+00 -5.68080e-01
4
# CELL(abcABC): 1000.00000  1000.00000  1000.00000    90.00000    90.00000    90.00000  Step:          51  Bead:       0 positions{angstrom}  cell{angstrom}
       O -3.14689e+00  1.07394e+00  3.45813e-01
       H -2.97608e+00  1.51235e-01  5.69107e-01
       H -2.92882e+00  1.50436e+00  1.19035e+00
       H -3.52911e+00  1.36771e+00 -5.63018e-01
4
# CELL(abcABC): 1000.00000  1000.00000  1000.00000    90.00000    90.00000    90.00000  Step:          52  Bead:       0 positions{angstrom}  cell{angstrom}
       O -3.14450e+00  1.07587e+00  3.44828e-01
       H -2.98492e+00  1.42145e-01  5.74362e-01
       H -2.92986e+00  1.49064e+00  1.19611e+00
       H -3.55724e+00  1.35992e+00 -5.58390e-01
4
# CELL(abcABC): 1000.00000  1000.00000  1000.00000    90.00000    90.00000    90.00000  Step:          53  Bead:       0 positions{angstrom}  cell{angstrom}
       O -3.14217e+00  1.07759e+00  3.43923e-01
       H -2.99296e+00  1.34981e-01  5.77721e-01
       H -2.93116e+00  1.47901e+00  1.20156e+00
       H -3.58488e+00  1.35137e+00 -5.52835e-01
4
# CELL(abcABC): 1000.00000  1000.00000  1000.00000    90.00000    90.00000    90.00000  Step:          54  Bead:       0 positions{angstrom}  cell{angstrom}
       O -3.13988e+00  1.07914e+00  3.42884e-01
       H -3.00088e+00  1.29246e-01  5.80856e-01
       H -2.93269e+00  1.46912e+00  1.20693e+00
       H -3.61173e+00  1.34239e+00 -5.44861e-01
4
# CELL(abcABC): 1000.00000  1000.00000  1000.00000    90.00000    90.00000    90.00000  Step:          55  Bead:       0 positions{angstrom}  cell{angstrom}
       O -3.13773e+00  1.08039e+00  3.41957e-01
       H -3.00915e+00  1.26688e-01  5.83210e-01
       H -2.93380e+00  1.46060e+00  1.21209e+00
       H -3.63650e+00  1.33366e+00 -5.37663e-01
4
# CELL(abcABC): 1000.00000  1000.00000  1000.00000    90.00000    90.00000    90.00000  Step:          56  Bead:       0 positions{angstrom}  cell{angstrom}
       O -3.13577e+00  1.08125e+00  3.41192e-01
       H -3.01487e+00  1.27752e-01  5.84451e-01
       H -2.93466e+00  1.45326e+00  1.21518e+00
       H -3.66103e+00  1.32632e+00 -5.29842e-01
4
# CELL(abcABC): 1000.00000  1000.00000  1000.00000    90.00000    90.00000    90.00000  Step:          57  Bead:       0 positions{angstrom}  cell{angstrom}
       O -3.13396e+00  1.08170e+00  3.40549e-01
       H -3.01842e+00  1.32682e-01  5.84440e-01
       H -2.93601e+00  1.44708e+00  1.21829e+00
       H -3.68483e+00  1.32043e+00 -5.22722e-01
4
# CELL(abcABC): 1000.00000  1000.00000  1000.00000    90.00000    90.00000    90.00000  Step:          58  Bead:       0 positions{angstrom}  cell{angstrom}
       O -3.13243e+00  1.08185e+00  3.40086e-01
       H -3.02001e+00  1.39615e-01  5.82535e-01
       H -2.93628e+00  1.44261e+00  1.22105e+00
       H -3.70734e+00  1.31556e+00 -5.16242e-01
4
# CELL(abcABC): 1000.00000  1000.00000  1000.00000    90.00000    90.00000    90.00000  Step:          59  Bead:       0 positions{angstrom}  cell{angstrom}
       O -3.13119e+00  1.08166e+00  3.39693e-01
       H -3.01953e+00  1.48589e-01  5.79129e-01
       H -2.93535e+00  1.44039e+00  1.22438e+00
       H -3.72843e+00  1.31180e+00 -5.09930e-01
4
# CELL(abcABC): 1000.00000  1000.00000  1000.00000    90.00000    90.00000    90.00000  Step:          60  Bead:       0 positions{angstrom}  cell{angstrom}
       O -3.13026e+00  1.08131e+00  3.39544e-01
       H -3.01867e+00  1.57976e-01  5.74433e-01
       H -2.93263e+00  1.43920e+00  1.22485e+00
       H -3.74670e+00  1.30919e+00 -5.03338e-01
4
# CELL(abcABC): 1000.00000  1000.00000  1000.00000    90.00000    90.00000    90.00000  Step:          61  Bead:       0 positions{angstrom}  cell{angstrom}
       O -3.12974e+00  1.08088e+00  3.39613e-01
       H -3.01529e+00  1.66307e-01  5.68399e-01
       H -2.92753e+00  1.43934e+00  1.22267e+00
       H -3.76342e+00  1.30755e+00 -4.96213e-01
4
# CELL(abcABC): 1000.00000  1000.00000  1000.00000    90.00000    90.00000    90.00000  Step:          62  Bead:       0 positions{angstrom}  cell{angstrom}
       O -3.12948e+00  1.08050e+00  3.39983e-01
       H -3.01085e+00  1.72028e-01  5.61138e-01
       H -2.92244e+00  1.44047e+00  1.21868e+00
       H -3.77710e+00  1.30667e+00 -4.90829e-01
4
# CELL(abcABC): 1000.00000  1000.00000  1000.00000    90.00000    90.00000    90.00000  Step:          63  Bead:       0 positions{angstrom}  cell{angstrom}
       O -3.12951e+00  1.08005e+00  3.40334e-01
       H -3.00412e+00  1.76020e-01  5.53844e-01
       H -2.91647e+00  1.44225e+00  1.21346e+00
       H -3.78939e+00  1.30799e+00 -4.83890e-01
4
# CELL(abcABC): 1000.00000  1000.00000  1000.00000    90.00000    90.00000    90.00000  Step:          64  Bead:       0 positions{angstrom}  cell{angstrom}
       O -3.12991e+00  1.07968e+00  3.40744e-01
       H -2.99411e+00  1.76973e-01  5.47254e-01
       H -2.90895e+00  1.44516e+00  1.20751e+00
       H -3.80051e+00  1.31007e+00 -4.77865e-01
4
# CELL(abcABC): 1000.00000  1000.00000  1000.00000    90.00000    90.00000    90.00000  Step:          65  Bead:       0 positions{angstrom}  cell{angstrom}
       O -3.13066e+00  1.07933e+00  3.41246e-01
       H -2.98281e+00  1.75176e-01  5.39401e-01
       H -2.89956e+00  1.45066e+00  1.20097e+00
       H -3.80930e+00  1.31193e+00 -4.71441e-01
4
# CELL(abcABC): 1000.00000  1000.00000  1000.00000    90.00000    90.00000    90.00000  Step:          66  Bead:       0 positions{angstrom}  cell{angstrom}
       O -3.13176e+00  1.07894e+00  3.41703e-01
       H -2.96966e+00  1.73018e-01  5.32112e-01
       H -2.88880e+00  1.45597e+00  1.19453e+00
       H -3.81579e+00  1.31497e+00 -4.64972e-01
4
# CELL(abcABC): 1000.00000  1000.00000  1000.00000    90.00000    90.00000    90.00000  Step:          67  Bead:       0 positions{angstrom}  cell{angstrom}
       O -3.13310e+00  1.07866e+00  3.42189e-01
       H -2.95442e+00  1.67668e-01  5.23906e-01
       H -2.87634e+00  1.46258e+00  1.18856e+00
       H -3.82224e+00  1.31812e+00 -4.58502e-01
4
# CELL(abcABC): 1000.00000  1000.00000  1000.00000    90.00000    90.00000    90.00000  Step:          68  Bead:       0 positions{angstrom}  cell{angstrom}
       O -3.13474e+00  1.07832e+00  3.42855e-01
       H -2.93697e+00  1.60718e-01  5.15227e-01
       H -2.86242e+00  1.47034e+00  1.18092e+00
       H -3.82750e+00  1.32267e+00 -4.52757e-01
4
# CELL(abcABC): 1000.00000  1000.00000  1000.00000    90.00000    90.00000    90.00000  Step:          69  Bead:       0 positions{angstrom}  cell{angstrom}
       O -3.13656e+00  1.07802e+00  3.43377e-01
       H -2.91861e+00  1.52069e-01  5.07927e-01
       H -2.84814e+00  1.47910e+00  1.17413e+00
       H -3.83127e+00  1.32732e+00 -4.46947e-01
4
# CELL(abcABC): 1000.00000  1000.00000  1000.00000    90.00000    90.00000    90.00000  Step:          70  Bead:       0 positions{angstrom}  cell{angstrom}
       O -3.13873e+00  1.07744e+00  3.43953e-01
       H -2.89899e+00  1.45175e-01  4.99356e-01
       H -2.83274e+00  1.48936e+00  1.16682e+00
       H -3.83193e+00  1.33326e+00 -4.40211e-01
4
# CELL(abcABC): 1000.00000  1000.00000  1000.00000    90.00000    90.00000    90.00000  Step:          71  Bead:       0 positions{angstrom}  cell{angstrom}
       O -3.14099e+00  1.07673e+00  3.44664e-01
       H -2.87959e+00  1.39394e-01  4.89025e-01
       H -2.81710e+00  1.49952e+00  1.15856e+00
       H -3.83112e+00  1.34012e+00 -4.32904e-01
4
# CELL(abcABC): 1000.00000  1000.00000  1000.00000    90.00000    90.00000    90.00000  Step:          72  Bead:       0 positions{angstrom}  cell{angstrom}
       O -3.14338e+00  1.07568e+00  3.45400e-01
       H -2.85977e+00  1.36941e-01  4.78644e-01
       H -2.80080e+00  1.50998e+00  1.15032e+00
       H -3.82927e+00  1.34871e+00 -4.25968e-01
4
# CELL(abcABC): 1000.00000  1000.00000  1000.00000    90.00000    90.00000    90.00000  Step:          73  Bead:       0 positions{angstrom}  cell{angstrom}
       O -3.14577e+00  1.07442e+00  3.46291e-01
       H -2.84035e+00  1.37875e-01  4.67875e-01
       H -2.78438e+00  1.52060e+00  1.14109e+00
       H -3.82710e+00  1.35714e+00 -4.20108e-01
4
# CELL(abcABC): 1000.00000  1000.00000  1000.00000    90.00000    90.00000    90.00000  Step:          74  Bead:       0 positions{angstrom}  cell{angstrom}
       O -3.14819e+00  1.07288e+00  3.47431e-01
       H -2.82115e+00  1.42571e-01  4.55704e-01
       H -2.76818e+00  1.53068e+00  1.12942e+00
       H -3.82407e+00  1.36691e+00 -4.14365e-01
4
# CELL(abcABC): 1000.00000  1000.00000  1000.00000    90.00000    90.00000    90.00000  Step:          75  Bead:       0 positions{angstrom}  cell{angstrom}
       O -3.15041e+00  1.07118e+00  3.48655e-01
       H -2.80315e+00  1.49754e-01  4.43059e-01
       H -2.75309e+00  1.53930e+00  1.11716e+00
       H -3.82200e+00  1.37811e+00 -4.08881e-01
4
# CELL(abcABC): 1000.00000  1000.00000  1000.00000    90.00000    90.00000    90.00000  Step:          76  Bead:       0 positions{angstrom}  cell{angstrom}
       O -3.15262e+00  1.06921e+00  3.49820e-01
       H -2.78509e+00  1.60209e-01  4.31775e-01
       H -2.73895e+00  1.54690e+00  1.10365e+00
       H -3.81908e+00  1.39134e+00 -4.02579e-01
4
# CELL(abcABC): 1000.00000  1000.00000  1000.00000    90.00000    90.00000    90.00000  Step:          77  Bead:       0 positions{angstrom}  cell{angstrom}
       O -3.15464e+00  1.06712e+00  3.50989e-01
       H -2.76788e+00  1.73882e-01  4.20954e-01
       H -2.72628e+00  1.55355e+00  1.08952e+00
       H -3.81692e+00  1.40408e+00 -3.96189e-01
4
# CELL(abcABC): 1000.00000  1000.00000  1000.00000    90.00000    90.00000    90.00000  Step:          78  Bead:       0 positions{angstrom}  cell{angstrom}
       O -3.15648e+00  1.06505e+00  3.52338e-01
       H -2.75245e+00  1.88168e-01  4.09796e-01
       H -2.71394e+00  1.55953e+00  1.07408e+00
       H -3.81551e+00  1.41672e+00 -3.91009e-01
4
# CELL(abcABC): 1000.00000  1000.00000  1000.00000    90.00000    90.00000    90.00000  Step:          79  Bead:       0 positions{angstrom}  cell{angstrom}
       O -3.15826e+00  1.06316e+00  3.53642e-01
       H -2.73804e+00  2.03143e-01  4.00623e-01
       H -2.70144e+00  1.56332e+00  1.05765e+00
       H -3.81418e+00  1.42793e+00 -3.86111e-01
4
# CELL(abcABC): 1000.00000  1000.00000  1000.00000    90.00000    90.00000    90.00000  Step:          80  Bead:       0 positions{angstrom}  cell{angstrom}
       O -3.16002e+00  1.06146e+00  3.54795e-01
       H -2.72334e+00  2.17387e-01  3.92233e-01
       H -2.68956e+00  1.56564e+00  1.04185e+00
       H -3.81277e+00  1.43839e+00 -3.80218e-01
4
# CELL(abcABC): 1000.00000  1000.00000  1000.00000    90.00000    90.00000    90.00000  Step:          81  Bead:       0 positions{angstrom}  cell{angstrom}
       O -3.16175e+00  1.05985e+00  3.55938e-01
       H -2.70635e+00  2.30477e-01  3.83991e-01
       H -2.67919e+00  1.56887e+00  1.02620e+00
       H -3.81259e+00  1.44765e+00 -3.74462e-01
4
# CELL(abcABC): 1000.00000  1000.00000  1000.00000    90.00000    90.00000    90.00000  Step:          82  Bead:       0 positions{angstrom}  cell{angstrom}
       O -3.16339e+00  1.05864e+00  3.56888e-01
       H -2.68834e+00  2.40289e-01  3.77240e-01
       H -2.66937e+00  1.57020e+00  1.01079e+00
       H -3.81440e+00  1.45574e+00 -3.67388e-01
4
# CELL(abcABC): 1000.00000  1000.00000  1000.00000    90.00000    90.00000    90.00000  Step:          83  Bead:       0 positions{angstrom}  cell{angstrom}
       O -3.16496e+00  1.05761e+00  3.57716e-01
       H -2.67007e+00  2.47692e-01  3.71560e-01
       H -2.66038e+00  1.57161e+00  9.96123e-01
       H -3.81672e+00  1.46318e+00 -3.60186e-01
4
# CELL(abcABC): 1000.00000  1000.00000  1000.00000    90.00000    90.00000    90.00000  Step:          84  Bead:       0 positions{angstrom}  cell{angstrom}
       O -3.16638e+00  1.05681e+00  3.58434e-01
       H -2.65086e+00  2.51747e-01  3.65406e-01
       H -2.65318e+00  1.57329e+00  9.82415e-01
       H -3.82062e+00  1.47019e+00 -3.51717e-01
4
# CELL(abcABC): 1000.00000  1000.00000  1000.00000    90.00000    90.00000    90.00000  Step:          85  Bead:       0 positions{angstrom}  cell{angstrom}