4
# CELL(abcABC): 1000.00000  1000.00000  1000.00000    90.00000    90.00000    90.00000  Step:           0  Bead:       0 positions{angstrom}  cell{angstrom}
       O -3.14618e+00  1.06540e+00  3.47021e-01
       H -3.64684e+00  4.41862e-01 -1.38060e-01
       H -2.24789e+00  6.59554e-01  4.21651e-01
       H -3.55066e+00  2.05749e+00  8.93676e-01
4
# CELL(abcABC): 1000.00000  1000.00000  1000.00000    90.00000    90.00000    90.00000  Step:           1  Bead:       0 positions{angstrom}  cell{angstrom}
       O -3.14437e+00  1.06578e+00  3.46628e-01
       H -3.65759e+00  4.33268e-01 -1.35252e-01
       H -2.24897e+00  6.59364e-01  4.22191e-01
       H -3.56757e+00  2.06032e+00  8.96560e-01
4
# CELL(abcABC): 1000.00000  1000.00000  1000.00000    90.00000    90.00000    90.00000  Step:           2  Bead:       0 positions{angstrom}  cell{angstrom}
       O -3.14248e+00  1.06625e+00  3.46481e-01
       H -3.66959e+00  4.23162e-01 -1.33908e-01
       H -2.25066e+00  6.59988e-01  4.21509e-01
       H -3.58393e+00  2.06224e+00  8.98232e-01
4
# CELL(abcABC): 1000.00000  1000.00000  1000.00000    90.00000    90.00000    90.00000  Step:           3  Bead:       0 positions{angstrom}  cell{angstrom}
       O -3.14048e+00  1.06682e+00  3.46452e-01
       H -3.68096e+00  4.11394e-01 -1.31738e-01
       H -2.25447e+00  6.62414e-01  4.20308e-01
       H -3.60049e+00  2.06253e+00  8.97723e-01
4
# CELL(abcABC): 1000.00000  1000.00000  1000.00000    90.00000    90.00000    90.00000  Step:           4  Bead:       0 positions{angstrom}  cell{angstrom}
       O -3.13856e+00  1.06745e+00  3.46641e-01
       H -3.69132e+00  3.99102e-01 -1.30676e-01
       H -2.25879e+00  6.65991e-01  4.17631e-01
       H -3.61630e+00  2.06125e+00  8.96342e-01
4
# CELL(abcABC): 1000.00000  1000.00000  1000.00000    90.00000    90.00000    90.00000  Step:           5  Bead:       0 positions{angstrom}  cell{angstrom}
       O -3.13672e+00  1.06793e+00  3.46953e-01
       H -3.70015e+00  3.88583e-01 -1.29066e-01
       H -2.26409e+00  6.70942e-01  4.15080e-01
       H -3.63135e+00  2.05918e+00  8.92327e-01
4
# CELL(abcABC): 1000.00000  1000.00000  1000.00000    90.00000    90.00000    90.00000  Step:           6  Bead:       0 positions{angstrom}  cell{angstrom}
       O -3.13507e+00  1.06843e+00  3.47340e-01
       H -3.70575e+00  3.80912e-01 -1.26973e-01
       H -2.26932e+00  6.74110e-01  4.10814e-01
       H -3.64660e+00  2.05581e+00  8.88359e-01
4
# CELL(abcABC): 1000.00000  1000.00000  1000.00000    90.00000    90.00000    90.00000  Step:           7  Bead:       0 positions{angstrom}  cell{angstrom}
       O -3.13389e+00  1.06875e+00  3.47538e-01
       H -3.70620e+00  3.76385e-01 -1.21790e-01
       H -2.27304e+00  6.76290e-01  4.06781e-01
       H -3.66131e+00  2.05301e+00  8.84067e-01
4
# CELL(abcABC): 1000.00000  1000.00000  1000.00000    90.00000    90.00000    90.00000  Step:           8  Bead:       0 positions{angstrom}  cell{angstrom}
       O -3.13325e+00  1.06902e+00  3.47774e-01
       H -3.70179e+00  3.75135e-01 -1.15405e-01
       H -2.27331e+00  6.76571e-01  4.01699e-01
       H -3.67551e+00  2.04974e+00  8.79019e-01
4
# CELL(abcABC): 1000.00000  1000.00000  1000.00000    90.00000    90.00000    90.00000  Step:           9  Bead:       0 positions{angstrom}  cell{angstrom}
       O -3.13313e+00  1.06931e+00  3.47863e-01
       H -3.69366e+00  3.76079e-01 -1.06229e-01
       H -2.26986e+00  6.75929e-01  3.96916e-01
       H -3.68896e+00  2.04478e+00  8.73211e-01
4
# CELL(abcABC): 1000.00000  1000.00000  1000.00000    90.00000    90.00000    90.00000  Step:          10  Bead:       0 positions{angstrom}  cell{angstrom}
       O -3.13343e+00  1.06949e+00  3.48072e-01
       H -3.68218e+00  3.79461e-01 -9.65974e-02
       H -2.26392e+00  6.75102e-01  3.91170e-01
       H -3.70162e+00  2.03938e+00  8.66004e-01
4
# CELL(abcABC): 1000.00000  1000.00000  1000.00000    90.00000    90.00000    90.00000  Step:          11  Bead:       0 positions{angstrom}  cell{angstrom}
       O -3.13405e+00  1.06966e+00  3.48456e-01
       H -3.66804e+00  3.85142e-01 -8.77128e-02
       H -2.25762e+00  6.73516e-01  3.84821e-01
       H -3.71231e+00  2.03262e+00  8.57379e-01
4
# CELL(abcABC): 1000.00000  1000.00000  1000.00000    90.00000    90.00000    90.00000  Step:          12  Bead:       0 positions{angstrom}  cell{angstrom}
       O -3.13500e+00  1.06991e+00  3.48994e-01
       H -3.65126e+00  3.91064e-01 -7.94426e-02
       H -2.25061e+00  6.70695e-01  3.77336e-01
       H -3.72101e+00  2.02558e+00  8.48051e-01
4
# CELL(abcABC): 1000.00000  1000.00000  1000.00000    90.00000    90.00000    90.00000  Step:          13  Bead:       0 positions{angstrom}  cell{angstrom}
       O -3.13608e+00  1.07025e+00  3.49645e-01
       H -3.63446e+00  3.96560e-01 -7.21846e-02
       H -2.24242e+00  6.68278e-01  3.69815e-01
       H -3.72883e+00  2.01710e+00  8.37980e-01
4
# CELL(abcABC): 1000.00000  1000.00000  1000.00000    90.00000    90.00000    90.00000  Step:          14  Bead:       0 positions{angstrom}  cell{angstrom}
       O -3.13714e+00  1.07070e+00  3.50439e-01
       H -3.61780e+00  3.99223e-01 -6.67341e-02
       H -2.23483e+00  6.67624e-01  3.62345e-01
       H -3.73626e+00  2.00792e+00  8.27405e-01
4
# CELL(abcABC): 1000.00000  1000.00000  1000.00000    90.00000    90.00000    90.00000  Step:          15  Bead:       0 positions{angstrom}  cell{angstrom}
       O -3.13791e+00  1.07122e+00  3.51228e-01
       H -3.60593e+00  3.97450e-01 -6.21761e-02
       H -2.22976e+00  6.69224e-01  3.55306e-01
       H -3.74090e+00  1.99991e+00  8.17353e-01
4
# CELL(abcABC): 1000.00000  1000.00000  1000.00000    90.00000    90.00000    90.00000  Step:          16  Bead:       0 positions{angstrom}  cell{angstrom}
       O -3.13843e+00  1.07184e+00  3.52232e-01
       H -3.59663e+00  3.90661e-01 -6.13763e-02
       H -2.22723e+00  6.74033e-01  3.48726e-01
       H -3.74451e+00  1.99194e+00  8.07205e-01
4
# CELL(abcABC): 1000.00000  1000.00000  1000.00000    90.00000    90.00000    90.00000  Step:          17  Bead:       0 positions{angstrom}  cell{angstrom}
       O -3.13854e+00  1.07261e+00  3.53415e-01
       H -3.59030e+00  3.79837e-01 -6.36188e-02
       H -2.22820e+00  6.81875e-01  3.41727e-01
       H -3.74814e+00  1.98271e+00  7.97663e-01
4
# CELL(abcABC): 1000.00000  1000.00000  1000.00000    90.00000    90.00000    90.00000  Step:          18  Bead:       0 positions{angstrom}  cell{angstrom}
       O -3.13834e+00  1.07337e+00  3.54724e-01
       H -3.58821e+00  3.66300e-01 -6.83169e-02
       H -2.23016e+00  6.92079e-01  3.35308e-01
       H -3.75149e+00  1.97400e+00  7.88001e-01
4
# CELL(abcABC): 1000.00000  1000.00000  1000.00000    90.00000    90.00000    90.00000  Step:          19  Bead:       0 positions{angstrom}  cell{angstrom}
       O -3.13804e+00  1.07416e+00  3.56071e-01
       H -3.58797e+00  3.50647e-01 -7.42161e-02
       H -2.23437e+00  7.03892e-01  3.28958e-01
       H -3.75222e+00  1.96530e+00  7.78873e-01
4
# CELL(abcABC): 1000.00000  1000.00000  1000.00000    90.00000    90.00000    90.00000  Step:          20  Bead:       0 positions{angstrom}  cell{angstrom}
       O -3.13768e+00  1.07489e+00  3.57456e-01
       H -3.58880e+00  3.35208e-01 -8.21015e-02
       H -2.24010e+00  7.17657e-01  3.23632e-01
       H -3.75139e+00  1.95547e+00  7.70104e-01
4
# CELL(abcABC): 1000.00000  1000.00000  1000.00000    90.00000    90.00000    90.00000  Step:          21  Bead:       0 positions{angstrom}  cell{angstrom}
       O -3.13748e+00  1.07542e+00  3.58827e-01
       H -3.59017e+00  3.20731e-01 -9.07473e-02
       H -2.24356e+00  7.33386e-01  3.20056e-01
       H -3.74974e+00  1.94578e+00  7.60553e-01
4
# CELL(abcABC): 1000.00000  1000.00000  1000.00000    90.00000    90.00000    90.00000  Step:          22  Bead:       0 positions{angstrom}  cell{angstrom}
       O -3.13757e+00  1.07561e+00  3.60156e-01
       H -3.59183e+00  3.08314e-01 -9.71335e-02
       H -2.24305e+00  7.50354e-01  3.15646e-01
       H -3.74722e+00  1.93820e+00  7.50262e-01
4
# CELL(abcABC): 1000.00000  1000.00000  1000.00000    90.00000    90.00000    90.00000  Step:          23  Bead:       0 positions{angstrom}  cell{angstrom}
       O -3.13800e+00  1.07547e+00  3.61493e-01
       H -3.59178e+00  3.00452e-01 -1.02059e-01
       H -2.23909e+00  7.68512e-01  3.12326e-01
       H -3.74437e+00  1.93016e+00  7.37282e-01
4
# CELL(abcABC): 1000.00000  1000.00000  1000.00000    90.00000    90.00000    90.00000  Step:          24  Bead:       0 positions{angstrom}  cell{angstrom}
       O -3.13880e+00  1.07487e+00  3.62631e-01
       H -3.58915e+00  2.96235e-01 -1.04609e-01
       H -2.23197e+00  7.88276e-01  3.09897e-01
       H -3.74135e+00  1.92412e+00  7.24195e-01
4
# CELL(abcABC): 1000.00000  1000.00000  1000.00000    90.00000    90.00000    90.00000  Step:          25  Bead:       0 positions{angstrom}  cell{angstrom}
       O -3.13990e+00  1.07398e+00  3.63454e-01
       H -3.58438e+00  2.95833e-01 -1.03710e-01
       H -2.22268e+00  8.07865e-01  3.08256e-01
       H -3.73801e+00  1.91899e+00  7.11867e-01
4
# CELL(abcABC): 1000.00000  1000.00000  1000.00000    90.00000    90.00000    90.00000  Step:          26  Bead:       0 positions{angstrom}  cell{angstrom}
       O -3.14126e+00  1.07282e+00  3.64024e-01
       H -3.57744e+00  2.99307e-01 -1.00941e-01
       H -2.21128e+00  8.27628e-01  3.07003e-01
       H -3.73483e+00  1.91418e+00  7.01306e-01
4
# CELL(abcABC): 1000.00000  1000.00000  1000.00000    90.00000    90.00000    90.00000  Step:          27  Bead:       0 positions{angstrom}  cell{angstrom}
       O -3.14289e+00  1.07133e+00  3.64406e-01
       H -3.56881e+00  3.07577e-01 -9.65986e-02
       H -2.19910e+00  8.47047e-01  3.05988e-01
       H -3.72973e+00  1.91022e+00  6.91922e-01
4
# CELL(abcABC): 1000.00000  1000.00000  1000.00000    90.00000    90.00000    90.00000  Step:          28  Bead:       0 positions{angstrom}  cell{angstrom}
       O -3.14452e+00  1.06959e+00  3.64547e-01
       H -3.55992e+00  3.16964e-01 -9.08231e-02
       H -2.18679e+00  8.67115e-01  3.05794e-01
       H -3.72496e+00  1.90835e+00  6.84107e-01
4
# CELL(abcABC): 1000.00000  1000.00000  1000.00000    90.00000    90.00000    90.00000  Step:          29  Bead:       0 positions{angstrom}  cell{angstrom}
       O -3.14612e+00  1.06766e+00  3.64575e-01
       H -3.54970e+00  3.27794e-01 -8.57459e-02
       H -2.17714e+00  8.87638e-01  3.06141e-01
       H -3.71953e+00  1.90764e+00  6.78225e-01
4
# CELL(abcABC): 1000.00000  1000.00000  1000.00000    90.00000    90.00000    90.00000  Step:          30  Bead:       0 positions{angstrom}  cell{angstrom}
       O -3.14753e+00  1.06558e+00  3.64508e-01
       H -3.53933e+00  3.38921e-01 -8.02565e-02
       H -2.17043e+00  9.08507e-01  3.07405e-01
       H -3.71424e+00  1.90857e+00  6.72536e-01
4
# CELL(abcABC): 1000.00000  1000.00000  1000.00000    90.00000    90.00000    90.00000  Step:          31  Bead:       0 positions{angstrom}  cell{angstrom}
       O -3.14878e+00  1.06350e+00  3.64522e-01
       H -3.52859e+00  3.47401e-01 -7.61540e-02
       H -2.16646e+00  9.30708e-01  3.08473e-01
       H -3.70908e+00  1.91097e+00  6.67154e-01
4
# CELL(abcABC): 1000.00000  1000.00000  1000.00000    90.00000    90.00000    90.00000  Step:          32  Bead:       0 positions{angstrom}  cell{angstrom}
       O -3.14963e+00  1.06176e+00  3.64457e-01
       H -3.52089e+00  3.49187e-01 -7.41860e-02
       H -2.16566e+00  9.54157e-01  3.11112e-01
       H -3.70403e+00  1.91334e+00  6.63567e-01
4
# CELL(abcABC): 1000.00000  1000.00000  1000.00000    90.00000    90.00000    90.00000  Step:          33  Bead:       0 positions{angstrom}  cell{angstrom}
       O -3.15007e+00  1.06050e+00  3.64433e-01
       H -3.51622e+00  3.44329e-01 -7.43427e-02
       H -2.16818e+00  9.76300e-01  3.14507e-01
       H -3.69920e+00  1.91601e+00  6.60718e-01
4
# CELL(abcABC): 1000.00000  1000.00000  1000.00000    90.00000    90.00000    90.00000  Step:          34  Bead:       0 positions{angstrom}  cell{angstrom}
       O -3.15001e+00  1.05967e+00  3.64662e-01
       H -3.51340e+00  3.33308e-01 -7.79626e-02
       H -2.17582e+00  9.97296e-01  3.18390e-01
       H -3.69533e+00  1.91922e+00  6.56815e-01
4
# CELL(abcABC): 1000.00000  1000.00000  1000.00000    90.00000    90.00000    90.00000  Step:          35  Bead:       0 positions{angstrom}  cell{angstrom}
       O -3.14973e+00  1.05916e+00  3.65021e-01
       H -3.51039e+00  3.17320e-01 -8.49376e-02
       H -2.18694e+00  1.01825e+00  3.22973e-01
       H -3.69167e+00  1.92240e+00  6.53512e-01
4
# CELL(abcABC): 1000.00000  1000.00000  1000.00000    90.00000    90.00000    90.00000  Step:          36  Bead:       0 positions{angstrom}  cell{angstrom}
       O -3.14939e+00  1.05882e+00  3.65471e-01
       H -3.50760e+00  2.98269e-01 -9.39633e-02
       H -2.19864e+00  1.03928e+00  3.26599e-01
       H -3.68815e+00  1.92579e+00  6.51765e-01
4
# CELL(abcABC): 1000.00000  1000.00000  1000.00000    90.00000    90.00000    90.00000  Step:          37  Bead:       0 positions{angstrom}  cell{angstrom}
       O -3.14921e+00  1.05868e+00  3.65814e-01
       H -3.50351e+00  2.79052e-01 -1.01520e-01
       H -2.20876e+00  1.05830e+00  3.29457e-01
       H -3.68507e+00  1.92817e+00  6.51022e-01
4
# CELL(abcABC): 1000.00000  1000.00000  1000.00000    90.00000    90.00000    90.00000  Step:          38  Bead:       0 positions{angstrom}  cell{angstrom}
       O -3.14912e+00  1.05859e+00  3.66262e-01
       H -3.49885e+00  2.60433e-01 -1.09490e-01
       H -2.21604e+00  1.07466e+00  3.31621e-01
       H -3.68383e+00  1.93195e+00  6.49709e-01
4
# CELL(abcABC): 1000.00000  1000.00000  1000.00000    90.00000    90.00000    90.00000  Step:          39  Bead:       0 positions{angstrom}  cell{angstrom}
       O -3.14957e+00  1.05857e+00  3.66492e-01
       H -3.49119e+00  2.43619e-01 -1.15241e-01
       H -2.21890e+00  1.08822e+00  3.34190e-01
       H -3.68144e+00  1.93551e+00  6.49252e-01
4
# CELL(abcABC): 1000.00000  1000.00000  1000.00000    90.00000    90.00000    90.00000  Step:          40  Bead:       0 positions{angstrom}  cell{angstrom}
       O -3.15050e+00  1.05839e+00  3.66374e-01
       H -3.48082e+00  2.30486e-01 -1.17657e-01
       H -2.21700e+00  1.10023e+00  3.37906e-01
       H -3.67903e+00  1.93944e+00  6.49825e-01
4
# CELL(abcABC): 1000.00000  1000.00000  1000.00000    90.00000    90.00000    90.00000  Step:          41  Bead:       0 positions{angstrom}  cell{angstrom}
       O -3.15182e+00  1.05804e+00  3.66010e-01
       H -3.46796e+00  2.22249e-01 -1.17782e-01
       H -2.21045e+00  1.11090e+00  3.41529e-01
       H -3.67743e+00  1.94262e+00  6.52105e-01
4
# CELL(abcABC): 1000.00000  1000.00000  1000.00000    90.00000    90.00000    90.00000  Step:          42  Bead:       0 positions{angstrom}  cell{angstrom}
       O -3.15356e+00  1.05767e+00  3.65495e-01
       H -3.45096e+00  2.16460e-01 -1.15473e-01
       H -2.20087e+00  1.11981e+00  3.45200e-01
       H -3.67634e+00  1.94538e+00  6.54294e-01
4
# CELL(abcABC): 1000.00000  1000.00000  1000.00000    90.00000    90.00000    90.00000  Step:          43  Bead:       0 positions{angstrom}  cell{angstrom}
       O -3.15547e+00  1.05711e+00  3.64799e-01
       H -3.43187e+00  2.15581e-01 -1.10914e-01
       H -2.19007e+00  1.12819e+00  3.48889e-01
       H -3.67606e+00  1.94673e+00  6.57095e-01
4
# CELL(abcABC): 1000.00000  1000.00000  1000.00000    90.00000    90.00000    90.00000  Step:          44  Bead:       0 positions{angstrom}  cell{angstrom}
       O -3.15736e+00  1.05652e+00  3.63935e-01
       H -3.41068e+00  2.17456e-01 -1.04796e-01
       H -2.17990e+00  1.13423e+00  3.51968e-01
       H -3.67738e+00  1.94822e+00  6.61608e-01
4
# CELL(abcABC): 1000.00000  1000.00000  1000.00000    90.00000    90.00000    90.00000  Step:          45  Bead:       0 positions{angstrom}  cell{angstrom}
       O -3.15903e+00  1.05595e+00  3.63005e-01
       H -3.38875e+00  2.21885e-01 -9.77643e-02
       H -2.17129e+00  1.13765e+00  3.54156e-01
       H -3.68142e+00  1.94931e+00  6.67162e-01
4
# CELL(abcABC): 1000.00000  1000.00000  1000.00000    90.00000    90.00000    90.00000  Step:          46  Bead:       0 positions{angstrom}  cell{angstrom}
       O -3.16048e+00  1.05550e+00  3.62032e-01
       H -3.36628e+00  2.28044e-01 -9.03580e-02
       H -2.16627e+00  1.13826e+00  3.55819e-01
       H -3.68579e+00  1.94968e+00  6.73529e-01
4
# CELL(abcABC): 1000.00000  1000.00000  1000.00000    90.00000    90.00000    90.00000  Step:          47  Bead:       0 positions{angstrom}  cell{angstrom}
       O -3.16157e+00  1.05513e+00  3.61169e-01
       H -3.34381e+00  2.33473e-01 -8.27898e-02
       H -2.16528e+00  1.13722e+00  3.56588e-01
       H -3.69203e+00  1.95127e+00  6.78886e-01
4
# CELL(abcABC): 1000.00000  1000.00000  1000.00000    90.00000    90.00000    90.00000  Step:          48  Bead:       0 positions{angstrom}  cell{angstrom}
       O -3.16223e+00  1.05511e+00  3.60340e-01
       H -3.32155e+00  2.35781e-01 -7.59040e-02
       H -2.16870e+00  1.13510e+00  3.56622e-01
       H -3.70039e+00  1.95135e+00  6.85132e-01
4
# CELL(abcABC): 1000.00000  1000.00000  1000.00000    90.00000    90.00000    90.00000  Step:          49  Bead:       0 positions{angstrom}  cell{angstrom}
       O -3.16251e+00  1.05543e+00  3.59482e-01
       H -3.30041e+00  2.34242e-01 -7.00963e-02
       H -2.17502e+00  1.13133e+00  3.56823e-01
       H -3.71074e+00  1.95162e+00  6.92744e-01
4
# CELL(abcABC): 1000.00000  1000.00000  1000.00000    90.00000    90.00000    90.00000  Step:          50  Bead:       0 positions{angstrom}  cell{angstrom}
       O -3.16222e+00  1.05617e+00  3.58828e-01
       H -3.28119e+00  2.28744e-01 -6.65868e-02
       H -2.18645e+00  1.12581e+00  3.57215e-01
       H -3.72313e+00  1.95085e+00  6.99220e-01
4
# CELL(abcABC): 1000.00000  1000.00000  1000.00000    90.00000    90.00000    90.00000  Step:          51  Bead:       0 positions{angstrom}  cell{angstrom}
       O -3.16161e+00  1.05722e+00  3.58288e-01
       H -3.26421e+00  2.18860e-01 -6.54659e-02
       H -2.20020e+00  1.12006e+00  3.57635e-01
       H -3.73603e+00  1.94976e+00  7.06259e-01
4
# CELL(abcABC): 1000.00000  1000.00000  1000.00000    90.00000    90.00000    90.00000  Step:          52  Bead:       0 positions{angstrom}  cell{angstrom}
       O -3.16077e+00  1.05861e+00  3.57927e-01
       H -3.24966e+00  2.05702e-01 -6.58211e-02
       H -2.21437e+00  1.11371e+00  3.57161e-01
       H -3.74982e+00  1.94735e+00  7.12814e-01
4
# CELL(abcABC): 1000.00000  1000.00000  1000.00000    90.00000    90.00000    90.00000  Step:          53  Bead:       0 positions{angstrom}  cell{angstrom}
       O -3.15986e+00  1.06007e+00  3.57554e-01
       H -3.23667e+00  1.91467e-01 -6.78550e-02
       H -2.22682e+00  1.10925e+00  3.57646e-01
       H -3.76471e+00  1.94279e+00  7.20286e-01
4
# CELL(abcABC): 1000.00000  1000.00000  1000.00000    90.00000    90.00000    90.00000  Step:          54  Bead:       0 positions{angstrom}  cell{angstrom}
       O -3.15900e+00  1.06161e+00  3.56881e-01
       H -3.22591e+00  1.76356e-01 -6.87840e-02
       H -2.23555e+00  1.10643e+00  3.59343e-01
       H -3.78046e+00  1.93634e+00  7.30202e-01
4
# CELL(abcABC): 1000.00000  1000.00000  1000.00000    90.00000    90.00000    90.00000  Step:          55  Bead:       0 positions{angstrom}  cell{angstrom}
       O -3.15836e+00  1.06303e+00  3.56080e-01
       H -3.21786e+00  1.62945e-01 -6.81772e-02
       H -2.23838e+00  1.10498e+00  3.62241e-01
       H -3.79587e+00  1.92860e+00  7.39399e-01
4
# CELL(abcABC): 1000.00000  1000.00000  1000.00000    90.00000    90.00000    90.00000  Step:          56  Bead:       0 positions{angstrom}  cell{angstrom}
       O -3.15802e+00  1.06420e+00  3.55148e-01
       H -3.20970e+00  1.52587e-01 -6.56598e-02
       H -2.23496e+00  1.10472e+00  3.64622e-01
       H -3.81286e+00  1.92068e+00  7.49294e-01
4
# CELL(abcABC): 1000.00000  1000.00000  1000.00000    90.00000    90.00000    90.00000  Step:          57  Bead:       0 positions{angstrom}  cell{angstrom}
       O -3.15788e+00  1.06505e+00  3.54021e-01
       H -3.20191e+00  1.46400e-01 -6.09931e-02
       H -2.22668e+00  1.10551e+00  3.68586e-01
       H -3.83101e+00  1.91260e+00  7.58558e-01
4
# CELL(abcABC): 1000.00000  1000.00000  1000.00000    90.00000    90.00000    90.00000  Step:          58  Bead:       0 positions{angstrom}  cell{angstrom}
       O -3.15798e+00  1.06564e+00  3.52756e-01
       H -3.19489e+00  1.43381e-01 -5.47771e-02
       H -2.21340e+00  1.10778e+00  3.73789e-01
       H -3.84983e+00  1.90393e+00  7.67222e-01
4
# CELL(abcABC): 1000.00000  1000.00000  1000.00000    90.00000    90.00000    90.00000  Step:          59  Bead:       0 positions{angstrom}  cell{angstrom}
       O -3.15817e+00  1.06590e+00  3.51257e-01
       H -3.18869e+00  1.44390e-01 -4.68395e-02
       H -2.19718e+00  1.11191e+00  3.81163e-01
       H -3.86923e+00  1.89472e+00  7.75708e-01
4
# CELL(abcABC): 1000.00000  1000.00000  1000.00000    90.00000    90.00000    90.00000  Step:          60  Bead:       0 positions{angstrom}  cell{angstrom}
       O -3.15831e+00  1.06595e+00  3.49724e-01
       H -3.18517e+00  1.48536e-01 -3.74751e-02
       H -2.17978e+00  1.11662e+00  3.87445e-01
       H -3.88783e+00  1.88503e+00  7.84390e-01
4
# CELL(abcABC): 1000.00000  1000.00000  1000.00000    90.00000    90.00000    90.00000  Step:          61  Bead:       0 positions{angstrom}  cell{angstrom}
       O -3.15835e+00  1.06586e+00  3.48190e-01
       H -3.18235e+00  1.54916e-01 -2.74453e-02
       H -2.16288e+00  1.12201e+00  3.92733e-01
       H -3.90692e+00  1.87467e+00  7.93430e-01
4
# CELL(abcABC): 1000.00000  1000.00000  1000.00000    90.00000    90.00000    90.00000  Step:          62  Bead:       0 positions{angstrom}  cell{angstrom}
       O -3.15801e+00  1.06576e+00  3.46815e-01
       H -3.18180e+00  1.62192e-01 -1.74778e-02
       H -2.15080e+00  1.12755e+00  3.97577e-01
       H -3.92494e+00  1.86343e+00  8.00445e-01
4
# CELL(abcABC): 1000.00000  1000.00000  1000.00000    90.00000    90.00000    90.00000  Step:          63  Bead:       0 positions{angstrom}  cell{angstrom}
       O -3.15725e+00  1.06555e+00  3.45369e-01
       H -3.18235e+00  1.71027e-01 -7.21980e-03
       H -2.14392e+00  1.13271e+00  4.02094e-01
       H -3.94348e+00  1.85276e+00  8.08611e-01
4
# CELL(abcABC): 1000.00000  1000.00000  1000.00000    90.00000    90.00000    90.00000  Step:          64  Bead:       0 positions{angstrom}  cell{angstrom}
       O -3.15610e+00  1.06543e+00  3.44025e-01
       H -3.18304e+00  1.79355e-01  3.19042e-03
       H -2.14222e+00  1.13781e+00  4.06301e-01
       H -3.96260e+00  1.84124e+00  8.15328e-01
4
# CELL(abcABC): 1000.00000  1000.00000  1000.00000    90.00000    90.00000    90.00000  Step:          65  Bead:       0 positions{angstrom}  cell{angstrom}
       O -3.15457e+00  1.06545e+00  3.42899e-01
       H -3.18581e+00  1.86107e-01  1.10304e-02
       H -2.14549e+00  1.14419e+00  4.09876e-01
       H -3.98098e+00  1.82789e+00  8.21783e-01
4
# CELL(abcABC): 1000.00000  1000.00000  1000.00000    90.00000    90.00000    90.00000  Step:          66  Bead:       0 positions{angstrom}  cell{angstrom}
       O -3.15268e+00  1.06562e+00  3.41919e-01
       H -3.18994e+00  1.92147e-01  1.75500e-02
       H -2.15383e+00  1.14910e+00  4.13198e-01
       H -3.99842e+00  1.81412e+00  8.27503e-01
4
# CELL(abcABC): 1000.00000  1000.00000  1000.00000    90.00000    90.00000    90.00000  Step:          67  Bead:       0 positions{angstrom}  cell{angstrom}
       O -3.15044e+00  1.06620e+00  3.41205e-01
       H -3.19499e+00  1.93142e-01  2.08053e-02
       H -2.16592e+00  1.15414e+00  4.16442e-01
       H -4.01690e+00  1.79893e+00  8.32338e-01
4
# CELL(abcABC): 1000.00000  1000.00000  1000.00000    90.00000    90.00000    90.00000  Step:          68  Bead:       0 positions{angstrom}  cell{angstrom}
       O -3.14804e+00  1.06705e+00  3.40914e-01
       H -3.20044e+00  1.89621e-01  2.12121e-02
       H -2.18046e+00  1.15941e+00  4.17514e-01
       H -4.03498e+00  1.78366e+00  8.35472e-01
4
# CELL(abcABC): 1000.00000  1000.00000  1000.00000    90.00000    90.00000    90.00000  Step:          69  Bead:       0 positions{angstrom}  cell{angstrom}
       O -3.14554e+00  1.06828e+00  3.40705e-01
       H -3.20703e+00  1.81031e-01  2.09275e-02
       H -2.19654e+00  1.16511e+00  4.18970e-01
       H -4.05202e+00  1.76711e+00  8.37622e-01
4
# CELL(abcABC): 1000.00000  1000.00000  1000.00000    90.00000    90.00000    90.00000  Step:          70  Bead:       0 positions{angstrom}  cell{angstrom}
       O -3.14333e+00  1.06951e+00  3.40722e-01
       H -3.21366e+00  1.70914e-01  1.79215e-02
       H -2.21093e+00  1.17214e+00  4.19735e-01
       H -4.06606e+00  1.75058e+00  8.39594e-01
4
# CELL(abcABC): 1000.00000  1000.00000  1000.00000    90.00000    90.00000    90.00000  Step:          71  Bead:       0 positions{angstrom}  cell{angstrom}
       O -3.14140e+00  1.07084e+00  3.40984e-01
       H -3.22096e+00  1.59230e-01  1.23361e-02
       H -2.22196e+00  1.17946e+00  4.19766e-01
       H -4.07842e+00  1.73386e+00  8.40994e-01
4
# CELL(abcABC): 1000.00000  1000.00000  1000.00000    90.00000    90.00000    90.00000  Step:          72  Bead:       0 positions{angstrom}  cell{angstrom}
       O -3.13999e+00  1.07194e+00  3.41321e-01
       H -3.22744e+00  1.49152e-01  6.51823e-03
       H -2.22707e+00  1.18795e+00  4.20369e-01
       H -4.08920e+00  1.71792e+00  8.40852e-01
4
# CELL(abcABC): 1000.00000  1000.00000  1000.00000    90.00000    90.00000    90.00000  Step:          73  Bead:       0 positions{angstrom}  cell{angstrom}
       O -3.13912e+00  1.07285e+00  3.41814e-01
       H -3.23314e+00  1.41704e-01  6.08209e-04
       H -2.22554e+00  1.19789e+00  4.20870e-01
       H -4.09882e+00  1.70106e+00  8.38440e-01
4
# CELL(abcABC): 1000.00000  1000.00000  1000.00000    90.00000    90.00000    90.00000  Step:          74  Bead:       0 positions{angstrom}  cell{angstrom}
       O -3.13887e+00  1.07340e+00  3.42526e-01
       H -3.23722e+00  1.38163e-01 -6.10242e-03
       H -2.21775e+00  1.20881e+00  4.20021e-01
       H -4.10651e+00  1.68496e+00  8.34699e-01
4
# CELL(abcABC): 1000.00000  1000.00000  1000.00000    90.00000    90.00000    90.00000  Step:          75  Bead:       0 positions{angstrom}  cell{angstrom}
       O -3.13897e+00  1.07366e+00  3.43289e-01
       H -3.24019e+00  1.38056e-01 -1.25612e-02
       H -2.20575e+00  1.21982e+00  4.19595e-01
       H -4.11388e+00  1.66992e+00  8.29474e-01
4
# CELL(abcABC): 1000.00000  1000.00000  1000.00000    90.00000    90.00000    90.00000  Step:          76  Bead:       0 positions{angstrom}  cell{angstrom}
       O -3.13955e+00  1.07348e+00  3.43973e-01
       H -3.24052e+00  1.42833e-01 -1.69390e-02
       H -2.19120e+00  1.23115e+00  4.18753e-01
       H -4.11896e+00  1.65673e+00  8.23830e-01
4
# CELL(abcABC): 1000.00000  1000.00000  1000.00000    90.00000    90.00000    90.00000  Step:          77  Bead:       0 positions{angstrom}  cell{angstrom}
       O -3.14028e+00  1.07299e+00  3.44672e-01
       H -3.23906e+00  1.52825e-01 -2.03175e-02
       H -2.17674e+00  1.24259e+00  4.17850e-01
       H -4.12323e+00  1.64306e+00  8.17022e-01
4
# CELL(abcABC): 1000.00000  1000.00000  1000.00000    90.00000    90.00000    90.00000  Step:          78  Bead:       0 positions{angstrom}  cell{angstrom}
       O -3.14106e+00  1.07232e+00  3.45604e-01
       H -3.23694e+00  1.65588e-01 -2.38760e-02
       H -2.16315e+00  1.25400e+00  4.15891e-01
       H -4.12661e+00  1.62950e+00  8.07748e-01
4
# CELL(abcABC): 1000.00000  1000.00000  1000.00000    90.00000    90.00000    90.00000  Step:          79  Bead:       0 positions{angstrom}  cell{angstrom}
       O -3.14187e+00  1.07166e+00  3.46598e-01
       H -3.23378e+00  1.81153e-01 -2.57851e-02
       H -2.15165e+00  1.26347e+00  4.12837e-01
       H -4.12835e+00  1.61487e+00  7.96936e-01
4
# CELL(abcABC): 1000.00000  1000.00000  1000.00000    90.00000    90.00000    90.00000  Step:          80  Bead:       0 positions{angstrom}  cell{angstrom}
       O -3.14266e+00  1.07106e+00  3.47610e-01
       H -3.22874e+00  1.97702e-01 -2.78768e-02
       H -2.14437e+00  1.27124e+00  4.09918e-01
       H -4.12823e+00  1.60005e+00  7.85880e-01
4
# CELL(abcABC): 1000.00000  1000.00000  1000.00000    90.00000    90.00000    90.00000  Step:          81  Bead:       0 positions{angstrom}  cell{angstrom}
       O -3.14331e+00  1.07050e+00  3.48845e-01
       H -3.22035e+00  2.14029e-01 -3.14907e-02
       H -2.14309e+00  1.27926e+00  4.06324e-01
       H -4.12756e+00  1.58473e+00  7.73479e-01
4
# CELL(abcABC): 1000.00000  1000.00000  1000.00000    90.00000    90.00000    90.00000  Step:          82  Bead:       0 positions{angstrom}  cell{angstrom}
       O -3.14372e+00  1.07034e+00  3.50180e-01
       H -3.21028e+00  2.26850e-01 -3.60195e-02
       H -2.14716e+00  1.28446e+00  4.01909e-01
       H -4.12707e+00  1.56912e+00  7.61239e-01
4
# CELL(abcABC): 1000.00000  1000.00000  1000.00000    90.00000    90.00000    90.00000  Step:          83  Bead:       0 positions{angstrom}  cell{angstrom}
       O -3.14391e+00  1.07048e+00  3.51729e-01
       H -3.19940e+00  2.35784e-01 -4.24132e-02
       H -2.15673e+00  1.28860e+00  3.96905e-01
       H -4.12527e+00  1.55390e+00  7.48045e-01
4
# CELL(abcABC): 1000.00000  1000.00000  1000.00000    90.00000    90.00000    90.00000  Step:          84  Bead:       0 positions{angstrom}  cell{angstrom}
       O -3.14386e+00  1.07099e+00  3.53523e-01
       H -3.18685e+00  2.38964e-01 -5.24542e-02
       H -2.17206e+00  1.29182e+00  3.91380e-01
       H -4.12323e+00  1.53945e+00  7.35128e-01
4
# CELL(abcABC): 1000.00000  1000.00000  1000.00000    90.00000    90.00000    90.00000  Step:          85  Bead:       0 positions{angstrom}  cell{angstrom}