14
# CELL(abcABC): 1000.00000  1000.00000  1000.00000    90.00000    90.00000    90.00000  Step:          89  Bead:       0 positions{angstrom}  cell{angstrom}
       C -7.89112e-01  5.99549e-01 -1.21523e-01
       C  6.67505e-01  3.84632e-01  2.01978e-01
       C -1.62750e+00 -6.12901e-01  2.51645e-01
       C -1.30450e+00  1.89513e+00  6.15478e-01
       H -1.26915e+00  1.71067e+00  1.68826e+00
       H -2.34995e+00  1.99707e+00  3.38256e-01
       H -7.77702e-01  2.82733e+00  3.97743e-01
       H -1.35173e+00 -1.41987e+00 -3.82188e-01
       H -2.70098e+00 -3.59513e-01  2.97284e-02
       H -1.54837e+00 -8.22749e-01  1.30836e+00
       H  1.13373e+00 -2.36776e-01 -6.11449e-01
       H  7.43213e-01 -2.20811e-01  1.10317e+00
       H  1.22404e+00  1.27069e+00  3.33521e-01
       H -8.83992e-01  7.25418e-01 -1.20025e+00
