4
# CELL(abcABC): 1000.00000  1000.00000  1000.00000    90.00000    90.00000    90.00000  Step:           0  Bead:       0 positions{angstrom}  cell{angstrom}
       O -3.14542e+00  1.06498e+00  3.53973e-01
       H -3.62476e+00  5.94251e-01 -2.98457e-01
       H -2.60312e+00  4.67094e-01  7.64446e-01
       H -3.22950e+00  2.10426e+00  6.00933e-01
4
# CELL(abcABC): 1000.00000  1000.00000  1000.00000    90.00000    90.00000    90.00000  Step:           1  Bead:       0 positions{angstrom}  cell{angstrom}
       O -3.14386e+00  1.06553e+00  3.53402e-01
       H -3.63536e+00  5.86017e-01 -2.95556e-01
       H -2.60022e+00  4.63222e-01  7.67274e-01
       H -3.24661e+00  2.10760e+00  6.04264e-01
4
# CELL(abcABC): 1000.00000  1000.00000  1000.00000    90.00000    90.00000    90.00000  Step:           2  Bead:       0 positions{angstrom}  cell{angstrom}
       O -3.14263e+00  1.06652e+00  3.52749e-01
       H -3.64728e+00  5.76528e-01 -2.93946e-01
       H -2.59083e+00  4.53627e-01  7.73011e-01
       H -3.26362e+00  2.11107e+00  6.07280e-01
4
# CELL(abcABC): 1000.00000  1000.00000  1000.00000    90.00000    90.00000    90.00000  Step:           3  Bead:       0 positions{angstrom}  cell{angstrom}
       O -3.14156e+00  1.06783e+00  3.51964e-01
       H -3.65900e+00  5.65115e-01 -2.91315e-01
       H -2.57838e+00  4.41229e-01  7.81133e-01
       H -3.28135e+00  2.11394e+00  6.08992e-01
4
# CELL(abcABC): 1000.00000  1000.00000  1000.00000    90.00000    90.00000    90.00000  Step:           4  Bead:       0 positions{angstrom}  cell{angstrom}
       O -3.14064e+00  1.06933e+00  3.51242e-01
       H -3.67050e+00  5.52439e-01 -2.89584e-01
       H -2.56384e+00  4.27786e-01  7.89188e-01
       H -3.29894e+00  2.11630e+00  6.10672e-01
4
# CELL(abcABC): 1000.00000  1000.00000  1000.00000    90.00000    90.00000    90.00000  Step:           5  Bead:       0 positions{angstrom}  cell{angstrom}
       O -3.13970e+00  1.07067e+00  3.50577e-01
       H -3.68149e+00  5.40436e-01 -2.87010e-01
       H -2.55025e+00  4.15897e-01  7.97327e-01
       H -3.31644e+00  2.11895e+00  6.10503e-01
4
# CELL(abcABC): 1000.00000  1000.00000  1000.00000    90.00000    90.00000    90.00000  Step:           6  Bead:       0 positions{angstrom}  cell{angstrom}
       O -3.13868e+00  1.07190e+00  3.49993e-01
       H -3.69043e+00  5.29972e-01 -2.83535e-01
       H -2.53904e+00  4.04458e-01  8.02526e-01
       H -3.33490e+00  2.12137e+00  6.11108e-01
4
# CELL(abcABC): 1000.00000  1000.00000  1000.00000    90.00000    90.00000    90.00000  Step:           7  Bead:       0 positions{angstrom}  cell{angstrom}
       O -3.13771e+00  1.07273e+00  3.49277e-01
       H -3.69537e+00  5.21296e-01 -2.76440e-01
       H -2.53074e+00  3.95862e-01  8.05856e-01
       H -3.35360e+00  2.12545e+00  6.12052e-01
4
# CELL(abcABC): 1000.00000  1000.00000  1000.00000    90.00000    90.00000    90.00000  Step:           8  Bead:       0 positions{angstrom}  cell{angstrom}
       O -3.13682e+00  1.07321e+00  3.48694e-01
       H -3.69652e+00  5.14637e-01 -2.67571e-01
       H -2.52479e+00  3.90271e-01  8.05459e-01
       H -3.37261e+00  2.13010e+00  6.12832e-01
4
# CELL(abcABC): 1000.00000  1000.00000  1000.00000    90.00000    90.00000    90.00000  Step:           9  Bead:       0 positions{angstrom}  cell{angstrom}
       O -3.13594e+00  1.07338e+00  3.48080e-01
       H -3.69480e+00  5.09145e-01 -2.55326e-01
       H -2.52139e+00  3.89095e-01  8.02411e-01
       H -3.39168e+00  2.13402e+00  6.13377e-01
4
# CELL(abcABC): 1000.00000  1000.00000  1000.00000    90.00000    90.00000    90.00000  Step:          10  Bead:       0 positions{angstrom}  cell{angstrom}
       O -3.13503e+00  1.07310e+00  3.47708e-01
       H -3.69031e+00  5.05420e-01 -2.42049e-01
       H -2.52133e+00  3.92902e-01  7.95448e-01
       H -3.41068e+00  2.13835e+00  6.12974e-01
4
# CELL(abcABC): 1000.00000  1000.00000  1000.00000    90.00000    90.00000    90.00000  Step:          11  Bead:       0 positions{angstrom}  cell{angstrom}
       O -3.13408e+00  1.07250e+00  3.47616e-01
       H -3.68332e+00  5.03823e-01 -2.28942e-01
       H -2.52562e+00  4.00360e-01  7.85236e-01
       H -3.42837e+00  2.14205e+00  6.11534e-01
4
# CELL(abcABC): 1000.00000  1000.00000  1000.00000    90.00000    90.00000    90.00000  Step:          12  Bead:       0 positions{angstrom}  cell{angstrom}
       O -3.13327e+00  1.07171e+00  3.47751e-01
       H -3.67338e+00  5.02941e-01 -2.15850e-01
       H -2.53223e+00  4.09759e-01  7.71837e-01
       H -3.44462e+00  2.14602e+00  6.09704e-01
4
# CELL(abcABC): 1000.00000  1000.00000  1000.00000    90.00000    90.00000    90.00000  Step:          13  Bead:       0 positions{angstrom}  cell{angstrom}
       O -3.13256e+00  1.07082e+00  3.48023e-01
       H -3.66260e+00  5.02841e-01 -2.03181e-01
       H -2.53859e+00  4.21069e-01  7.57182e-01
       H -3.46036e+00  2.14895e+00  6.07371e-01
4
# CELL(abcABC): 1000.00000  1000.00000  1000.00000    90.00000    90.00000    90.00000  Step:          14  Bead:       0 positions{angstrom}  cell{angstrom}
       O -3.13198e+00  1.06994e+00  3.48408e-01
       H -3.65073e+00  5.01814e-01 -1.91794e-01
       H -2.54400e+00  4.33687e-01  7.42345e-01
       H -3.47597e+00  2.15137e+00  6.04705e-01
4
# CELL(abcABC): 1000.00000  1000.00000  1000.00000    90.00000    90.00000    90.00000  Step:          15  Bead:       0 positions{angstrom}  cell{angstrom}
       O -3.13146e+00  1.06913e+00  3.48710e-01
       H -3.64225e+00  4.98736e-01 -1.80981e-01
       H -2.54787e+00  4.46017e-01  7.28781e-01
       H -3.48889e+00  2.15496e+00  6.02657e-01
4
# CELL(abcABC): 1000.00000  1000.00000  1000.00000    90.00000    90.00000    90.00000  Step:          16  Bead:       0 positions{angstrom}  cell{angstrom}
       O -3.13115e+00  1.06858e+00  3.49111e-01
       H -3.63507e+00  4.93036e-01 -1.74002e-01
       H -2.54807e+00  4.57099e-01  7.17560e-01
       H -3.50076e+00  2.15840e+00  6.00532e-01
4
# CELL(abcABC): 1000.00000  1000.00000  1000.00000    90.00000    90.00000    90.00000  Step:          17  Bead:       0 positions{angstrom}  cell{angstrom}
       O -3.13098e+00  1.06844e+00  3.49566e-01
       H -3.63004e+00  4.85202e-01 -1.70662e-01
       H -2.54404e+00  4.65339e-01  7.08591e-01
       H -3.51254e+00  2.16020e+00  5.98953e-01
4
# CELL(abcABC): 1000.00000  1000.00000  1000.00000    90.00000    90.00000    90.00000  Step:          18  Bead:       0 positions{angstrom}  cell{angstrom}
       O -3.13104e+00  1.06866e+00  3.50035e-01
       H -3.62894e+00  4.75706e-01 -1.70917e-01
       H -2.53282e+00  4.69439e-01  7.03242e-01
       H -3.52384e+00  2.16201e+00  5.97105e-01
4
# CELL(abcABC): 1000.00000  1000.00000  1000.00000    90.00000    90.00000    90.00000  Step:          19  Bead:       0 positions{angstrom}  cell{angstrom}
       O -3.13148e+00  1.06933e+00  3.50482e-01
       H -3.62980e+00  4.64185e-01 -1.73898e-01
       H -2.51655e+00  4.69181e-01  7.00676e-01
       H -3.53230e+00  2.16319e+00  5.95560e-01
4
# CELL(abcABC): 1000.00000  1000.00000  1000.00000    90.00000    90.00000    90.00000  Step:          20  Bead:       0 positions{angstrom}  cell{angstrom}
       O -3.13217e+00  1.07031e+00  3.50976e-01
       H -3.63211e+00  4.52129e-01 -1.80581e-01
       H -2.49658e+00  4.66401e-01  7.01015e-01
       H -3.53894e+00  2.16250e+00  5.94055e-01
4
# CELL(abcABC): 1000.00000  1000.00000  1000.00000    90.00000    90.00000    90.00000  Step:          21  Bead:       0 positions{angstrom}  cell{angstrom}
       O -3.13316e+00  1.07138e+00  3.51537e-01
       H -3.63535e+00  4.39711e-01 -1.89695e-01
       H -2.47209e+00  4.63137e-01  7.03915e-01
       H -3.54451e+00  2.16115e+00  5.91365e-01
4
# CELL(abcABC): 1000.00000  1000.00000  1000.00000    90.00000    90.00000    90.00000  Step:          22  Bead:       0 positions{angstrom}  cell{angstrom}
       O -3.13438e+00  1.07229e+00  3.52198e-01
       H -3.63914e+00  4.27719e-01 -1.97980e-01
       H -2.44454e+00  4.60821e-01  7.05631e-01
       H -3.54897e+00  2.16109e+00  5.87452e-01
4
# CELL(abcABC): 1000.00000  1000.00000  1000.00000    90.00000    90.00000    90.00000  Step:          23  Bead:       0 positions{angstrom}  cell{angstrom}
       O -3.13573e+00  1.07293e+00  3.53057e-01
       H -3.64130e+00  4.18566e-01 -2.05913e-01
       H -2.41704e+00  4.61205e-01  7.07077e-01
       H -3.55286e+00  2.15968e+00  5.80301e-01
4
# CELL(abcABC): 1000.00000  1000.00000  1000.00000    90.00000    90.00000    90.00000  Step:          24  Bead:       0 positions{angstrom}  cell{angstrom}
       O -3.13715e+00  1.07310e+00  3.53937e-01
       H -3.64074e+00  4.11445e-01 -2.12229e-01
       H -2.39168e+00  4.65982e-01  7.07283e-01
       H -3.55630e+00  2.15936e+00  5.72439e-01
4
# CELL(abcABC): 1000.00000  1000.00000  1000.00000    90.00000    90.00000    90.00000  Step:          25  Bead:       0 positions{angstrom}  cell{angstrom}
       O -3.13850e+00  1.07290e+00  3.54735e-01
       H -3.63769e+00  4.06772e-01 -2.15510e-01
       H -2.37044e+00  4.74085e-01  7.05645e-01
       H -3.55914e+00  2.15899e+00  5.64696e-01
4
# CELL(abcABC): 1000.00000  1000.00000  1000.00000    90.00000    90.00000    90.00000  Step:          26  Bead:       0 positions{angstrom}  cell{angstrom}
       O -3.13976e+00  1.07232e+00  3.55509e-01
       H -3.63198e+00  4.04989e-01 -2.17006e-01
       H -2.35348e+00  4.86145e-01  7.01486e-01
       H -3.56178e+00  2.15794e+00  5.58058e-01
4
# CELL(abcABC): 1000.00000  1000.00000  1000.00000    90.00000    90.00000    90.00000  Step:          27  Bead:       0 positions{angstrom}  cell{angstrom}
       O -3.14100e+00  1.07127e+00  3.56310e-01
       H -3.62387e+00  4.07540e-01 -2.16671e-01
       H -2.34157e+00  5.01563e-01  6.94575e-01
       H -3.56208e+00  2.15669e+00  5.51926e-01
4
# CELL(abcABC): 1000.00000  1000.00000  1000.00000    90.00000    90.00000    90.00000  Step:          28  Bead:       0 positions{angstrom}  cell{angstrom}
       O -3.14204e+00  1.06982e+00  3.57055e-01
       H -3.61456e+00  4.11436e-01 -2.14289e-01
       H -2.33423e+00  5.21000e-01  6.85587e-01
       H -3.56222e+00  2.15641e+00  5.46699e-01
4
# CELL(abcABC): 1000.00000  1000.00000  1000.00000    90.00000    90.00000    90.00000  Step:          29  Bead:       0 positions{angstrom}  cell{angstrom}
       O -3.14295e+00  1.06800e+00  3.57833e-01
       H -3.60279e+00  4.17791e-01 -2.11632e-01
       H -2.33272e+00  5.43736e-01  6.74517e-01
       H -3.56109e+00  2.15614e+00  5.42761e-01
4
# CELL(abcABC): 1000.00000  1000.00000  1000.00000    90.00000    90.00000    90.00000  Step:          30  Bead:       0 positions{angstrom}  cell{angstrom}
       O -3.14371e+00  1.06587e+00  3.58606e-01
       H -3.58954e+00  4.26296e-01 -2.07269e-01
       H -2.33554e+00  5.68947e-01  6.62235e-01
       H -3.55945e+00  2.15629e+00  5.38410e-01
4
# CELL(abcABC): 1000.00000  1000.00000  1000.00000    90.00000    90.00000    90.00000  Step:          31  Bead:       0 positions{angstrom}  cell{angstrom}
       O -3.14448e+00  1.06356e+00  3.59492e-01
       H -3.57453e+00  4.34779e-01 -2.02815e-01
       H -2.34050e+00  5.96718e-01  6.48327e-01
       H -3.55720e+00  2.15666e+00  5.33808e-01
4
# CELL(abcABC): 1000.00000  1000.00000  1000.00000    90.00000    90.00000    90.00000  Step:          32  Bead:       0 positions{angstrom}  cell{angstrom}
       O -3.14517e+00  1.06147e+00  3.60277e-01
       H -3.56130e+00  4.39643e-01 -1.99104e-01
       H -2.34577e+00  6.25897e-01  6.35453e-01
       H -3.55430e+00  2.15574e+00  5.30502e-01
4
# CELL(abcABC): 1000.00000  1000.00000  1000.00000    90.00000    90.00000    90.00000  Step:          33  Bead:       0 positions{angstrom}  cell{angstrom}
       O -3.14586e+00  1.05983e+00  3.61042e-01
       H -3.55036e+00  4.40690e-01 -1.96583e-01
       H -2.34919e+00  6.52830e-01  6.23794e-01
       H -3.55080e+00  2.15382e+00  5.27494e-01
4
# CELL(abcABC): 1000.00000  1000.00000  1000.00000    90.00000    90.00000    90.00000  Step:          34  Bead:       0 positions{angstrom}  cell{angstrom}
       O -3.14655e+00  1.05869e+00  3.61989e-01
       H -3.54129e+00  4.37447e-01 -1.97376e-01
       H -2.35064e+00  6.76771e-01  6.14007e-01
       H -3.54747e+00  2.15118e+00  5.23050e-01
4
# CELL(abcABC): 1000.00000  1000.00000  1000.00000    90.00000    90.00000    90.00000  Step:          35  Bead:       0 positions{angstrom}  cell{angstrom}
       O -3.14752e+00  1.05808e+00  3.62993e-01
       H -3.53293e+00  4.29724e-01 -2.02230e-01
       H -2.34752e+00  6.98196e-01  6.07092e-01
       H -3.54357e+00  2.14726e+00  5.18883e-01
4
# CELL(abcABC): 1000.00000  1000.00000  1000.00000    90.00000    90.00000    90.00000  Step:          36  Bead:       0 positions{angstrom}  cell{angstrom}
       O -3.14886e+00  1.05793e+00  3.64023e-01
       H -3.52638e+00  4.18039e-01 -2.10482e-01
       H -2.33732e+00  7.17044e-01  6.01865e-01
       H -3.53912e+00  2.14237e+00  5.16007e-01
4
# CELL(abcABC): 1000.00000  1000.00000  1000.00000    90.00000    90.00000    90.00000  Step:          37  Bead:       0 positions{angstrom}  cell{angstrom}
       O -3.15061e+00  1.05832e+00  3.64893e-01
       H -3.52054e+00  4.04236e-01 -2.18853e-01
       H -2.31990e+00  7.31624e-01  5.98522e-01
       H -3.53450e+00  2.13539e+00  5.13921e-01
4
# CELL(abcABC): 1000.00000  1000.00000  1000.00000    90.00000    90.00000    90.00000  Step:          38  Bead:       0 positions{angstrom}  cell{angstrom}
       O -3.15251e+00  1.05906e+00  3.65836e-01
       H -3.51632e+00  3.88486e-01 -2.29164e-01
       H -2.29736e+00  7.42192e-01  5.96681e-01
       H -3.53124e+00  2.12887e+00  5.11097e-01
4
# CELL(abcABC): 1000.00000  1000.00000  1000.00000    90.00000    90.00000    90.00000  Step:          39  Bead:       0 positions{angstrom}  cell{angstrom}
       O -3.15473e+00  1.06011e+00  3.66545e-01
       H -3.51118e+00  3.71850e-01 -2.38399e-01
       H -2.27193e+00  7.49663e-01  5.96748e-01
       H -3.52646e+00  2.12134e+00  5.09013e-01
4
# CELL(abcABC): 1000.00000  1000.00000  1000.00000    90.00000    90.00000    90.00000  Step:          40  Bead:       0 positions{angstrom}  cell{angstrom}
       O -3.15701e+00  1.06115e+00  3.66906e-01
       H -3.50525e+00  3.56371e-01 -2.44954e-01
       H -2.24666e+00  7.56358e-01  5.98699e-01
       H -3.52143e+00  2.11361e+00  5.07887e-01
4
# CELL(abcABC): 1000.00000  1000.00000  1000.00000    90.00000    90.00000    90.00000  Step:          41  Bead:       0 positions{angstrom}  cell{angstrom}
       O -3.15915e+00  1.06207e+00  3.67029e-01
       H -3.49847e+00  3.43649e-01 -2.49371e-01
       H -2.22383e+00  7.63358e-01  6.00605e-01
       H -3.51709e+00  2.10476e+00  5.08439e-01
4
# CELL(abcABC): 1000.00000  1000.00000  1000.00000    90.00000    90.00000    90.00000  Step:          42  Bead:       0 positions{angstrom}  cell{angstrom}
       O -3.16113e+00  1.06293e+00  3.67011e-01
       H -3.48892e+00  3.31795e-01 -2.51016e-01
       H -2.20585e+00  7.70928e-01  6.02065e-01
       H -3.51322e+00  2.09535e+00  5.08911e-01
4
# CELL(abcABC): 1000.00000  1000.00000  1000.00000    90.00000    90.00000    90.00000  Step:          43  Bead:       0 positions{angstrom}  cell{angstrom}
       O -3.16272e+00  1.06349e+00  3.66813e-01
       H -3.47828e+00  3.23952e-01 -2.49614e-01
       H -2.19426e+00  7.80750e-01  6.02677e-01
       H -3.51018e+00  2.08461e+00  5.10047e-01
4
# CELL(abcABC): 1000.00000  1000.00000  1000.00000    90.00000    90.00000    90.00000  Step:          44  Bead:       0 positions{angstrom}  cell{angstrom}
       O -3.16385e+00  1.06380e+00  3.66432e-01
       H -3.46620e+00  3.18767e-01 -2.45431e-01
       H -2.18991e+00  7.91260e-01  6.01607e-01
       H -3.50878e+00  2.07431e+00  5.12986e-01
4
# CELL(abcABC): 1000.00000  1000.00000  1000.00000    90.00000    90.00000    90.00000  Step:          45  Bead:       0 positions{angstrom}  cell{angstrom}
       O -3.16439e+00  1.06387e+00  3.65945e-01
       H -3.45370e+00  3.16929e-01 -2.38733e-01
       H -2.19235e+00  8.02255e-01  5.98526e-01
       H -3.51018e+00  2.06412e+00  5.17098e-01
4
# CELL(abcABC): 1000.00000  1000.00000  1000.00000    90.00000    90.00000    90.00000  Step:          46  Bead:       0 positions{angstrom}  cell{angstrom}
       O -3.16449e+00  1.06371e+00  3.65350e-01
       H -3.44063e+00  3.18526e-01 -2.29754e-01
       H -2.20201e+00  8.13391e-01  5.93888e-01
       H -3.51199e+00  2.05389e+00  5.22198e-01
4
# CELL(abcABC): 1000.00000  1000.00000  1000.00000    90.00000    90.00000    90.00000  Step:          47  Bead:       0 positions{angstrom}  cell{angstrom}
       O -3.16411e+00  1.06324e+00  3.64770e-01
       H -3.42731e+00  3.21943e-01 -2.18534e-01
       H -2.21761e+00  8.25496e-01  5.87564e-01
       H -3.51575e+00  2.04571e+00  5.26504e-01
4
# CELL(abcABC): 1000.00000  1000.00000  1000.00000    90.00000    90.00000    90.00000  Step:          48  Bead:       0 positions{angstrom}  cell{angstrom}
       O -3.16333e+00  1.06276e+00  3.64105e-01
       H -3.41383e+00  3.25355e-01 -2.05979e-01
       H -2.23757e+00  8.38570e-01  5.80112e-01
       H -3.52170e+00  2.03697e+00  5.31955e-01
4
# CELL(abcABC): 1000.00000  1000.00000  1000.00000    90.00000    90.00000    90.00000  Step:          49  Bead:       0 positions{angstrom}  cell{angstrom}
       O -3.16233e+00  1.06226e+00  3.63280e-01
       H -3.40119e+00  3.28059e-01 -1.92886e-01
       H -2.25814e+00  8.51231e-01  5.73018e-01
       H -3.52971e+00  2.02943e+00  5.39056e-01
4
# CELL(abcABC): 1000.00000  1000.00000  1000.00000    90.00000    90.00000    90.00000  Step:          50  Bead:       0 positions{angstrom}  cell{angstrom}
       O -3.16104e+00  1.06195e+00  3.62531e-01
       H -3.39041e+00  3.29284e-01 -1.81241e-01
       H -2.27916e+00  8.62469e-01  5.66993e-01
       H -3.53982e+00  2.02190e+00  5.45332e-01
4
# CELL(abcABC): 1000.00000  1000.00000  1000.00000    90.00000    90.00000    90.00000  Step:          51  Bead:       0 positions{angstrom}  cell{angstrom}
       O -3.15985e+00  1.06186e+00  3.61778e-01
       H -3.38208e+00  3.27333e-01 -1.72138e-01
       H -2.29564e+00  8.72694e-01  5.62677e-01
       H -3.55053e+00  2.01511e+00  5.52497e-01
4
# CELL(abcABC): 1000.00000  1000.00000  1000.00000    90.00000    90.00000    90.00000  Step:          52  Bead:       0 positions{angstrom}  cell{angstrom}
       O -3.15892e+00  1.06217e+00  3.61106e-01
       H -3.37660e+00  3.21723e-01 -1.65663e-01
       H -2.30420e+00  8.80507e-01  5.59854e-01
       H -3.56224e+00  2.00804e+00  5.59512e-01
4
# CELL(abcABC): 1000.00000  1000.00000  1000.00000    90.00000    90.00000    90.00000  Step:          53  Bead:       0 positions{angstrom}  cell{angstrom}
       O -3.15841e+00  1.06277e+00  3.60346e-01
       H -3.37305e+00  3.13174e-01 -1.62762e-01
       H -2.30286e+00  8.87656e-01  5.60751e-01
       H -3.57522e+00  1.99984e+00  5.67779e-01
4
# CELL(abcABC): 1000.00000  1000.00000  1000.00000    90.00000    90.00000    90.00000  Step:          54  Bead:       0 positions{angstrom}  cell{angstrom}
       O -3.15830e+00  1.06374e+00  3.59241e-01
       H -3.37190e+00  3.00862e-01 -1.60997e-01
       H -2.29176e+00  8.93590e-01  5.65481e-01
       H -3.58931e+00  1.99077e+00  5.78824e-01
4
# CELL(abcABC): 1000.00000  1000.00000  1000.00000    90.00000    90.00000    90.00000  Step:          55  Bead:       0 positions{angstrom}  cell{angstrom}
       O -3.15854e+00  1.06492e+00  3.58001e-01
       H -3.37323e+00  2.86884e-01 -1.59883e-01
       H -2.27247e+00  8.98179e-01  5.73389e-01
       H -3.60342e+00  1.98144e+00  5.89479e-01
4
# CELL(abcABC): 1000.00000  1000.00000  1000.00000    90.00000    90.00000    90.00000  Step:          56  Bead:       0 positions{angstrom}  cell{angstrom}
       O -3.15898e+00  1.06613e+00  3.56663e-01
       H -3.37372e+00  2.72624e-01 -1.58700e-01
       H -2.24877e+00  9.01682e-01  5.81764e-01
       H -3.61957e+00  1.97297e+00  6.01157e-01
4
# CELL(abcABC): 1000.00000  1000.00000  1000.00000    90.00000    90.00000    90.00000  Step:          57  Bead:       0 positions{angstrom}  cell{angstrom}
       O -3.15936e+00  1.06725e+00  3.55200e-01
       H -3.37342e+00  2.59581e-01 -1.56740e-01
       H -2.22523e+00  9.04493e-01  5.91665e-01
       H -3.63745e+00  1.96542e+00  6.12528e-01
4
# CELL(abcABC): 1000.00000  1000.00000  1000.00000    90.00000    90.00000    90.00000  Step:          58  Bead:       0 positions{angstrom}  cell{angstrom}
       O -3.15959e+00  1.06828e+00  3.53692e-01
       H -3.37232e+00  2.47369e-01 -1.54099e-01
       H -2.20349e+00  9.07506e-01  6.01857e-01
       H -3.65664e+00  1.95836e+00  6.23623e-01
4
# CELL(abcABC): 1000.00000  1000.00000  1000.00000    90.00000    90.00000    90.00000  Step:          59  Bead:       0 positions{angstrom}  cell{angstrom}
       O -3.15954e+00  1.06905e+00  3.52055e-01
       H -3.37017e+00  2.37632e-01 -1.50077e-01
       H -2.18596e+00  9.11539e-01  6.12588e-01
       H -3.67710e+00  1.95185e+00  6.34864e-01
4
# CELL(abcABC): 1000.00000  1000.00000  1000.00000    90.00000    90.00000    90.00000  Step:          60  Bead:       0 positions{angstrom}  cell{angstrom}
       O -3.15912e+00  1.06962e+00  3.50485e-01
       H -3.36863e+00  2.30364e-01 -1.44472e-01
       H -2.17376e+00  9.15644e-01  6.20135e-01
       H -3.69747e+00  1.94591e+00  6.46624e-01
4
# CELL(abcABC): 1000.00000  1000.00000  1000.00000    90.00000    90.00000    90.00000  Step:          61  Bead:       0 positions{angstrom}  cell{angstrom}
       O -3.15837e+00  1.06998e+00  3.48999e-01
       H -3.36557e+00  2.25649e-01 -1.37572e-01
       H -2.16729e+00  9.20228e-01  6.24375e-01
       H -3.71899e+00  1.94033e+00  6.59067e-01
4
# CELL(abcABC): 1000.00000  1000.00000  1000.00000    90.00000    90.00000    90.00000  Step:          62  Bead:       0 positions{angstrom}  cell{angstrom}
       O -3.15710e+00  1.07018e+00  3.47735e-01
       H -3.36259e+00  2.23166e-01 -1.29696e-01
       H -2.16937e+00  9.24977e-01  6.25837e-01
       H -3.74008e+00  1.93484e+00  6.69805e-01
4
# CELL(abcABC): 1000.00000  1000.00000  1000.00000    90.00000    90.00000    90.00000  Step:          63  Bead:       0 positions{angstrom}  cell{angstrom}
       O -3.15535e+00  1.07007e+00  3.46429e-01
       H -3.35859e+00  2.24551e-01 -1.20149e-01
       H -2.17885e+00  9.29497e-01  6.24815e-01
       H -3.76226e+00  1.93082e+00  6.82008e-01
4
# CELL(abcABC): 1000.00000  1000.00000  1000.00000    90.00000    90.00000    90.00000  Step:          64  Bead:       0 positions{angstrom}  cell{angstrom}
       O -3.15329e+00  1.06978e+00  3.45219e-01
       H -3.35279e+00  2.28585e-01 -1.08867e-01
       H -2.19412e+00  9.34133e-01  6.21678e-01
       H -3.78551e+00  1.92674e+00  6.93068e-01
4
# CELL(abcABC): 1000.00000  1000.00000  1000.00000    90.00000    90.00000    90.00000  Step:          65  Bead:       0 positions{angstrom}  cell{angstrom}
       O -3.15098e+00  1.06934e+00  3.44190e-01
       H -3.34745e+00  2.34725e-01 -9.85755e-02
       H -2.21326e+00  9.40191e-01  6.16635e-01
       H -3.80843e+00  1.92153e+00  7.04158e-01
4
# CELL(abcABC): 1000.00000  1000.00000  1000.00000    90.00000    90.00000    90.00000  Step:          66  Bead:       0 positions{angstrom}  cell{angstrom}
       O -3.14857e+00  1.06879e+00  3.43238e-01
       H -3.34222e+00  2.43869e-01 -8.82417e-02
       H -2.23444e+00  9.44749e-01  6.10780e-01
       H -3.83074e+00  1.91647e+00  7.14788e-01
4
# CELL(abcABC): 1000.00000  1000.00000  1000.00000    90.00000    90.00000    90.00000  Step:          67  Bead:       0 positions{angstrom}  cell{angstrom}
       O -3.14615e+00  1.06844e+00  3.42462e-01
       H -3.33719e+00  2.51152e-01 -8.03009e-02
       H -2.25432e+00  9.49143e-01  6.05154e-01
       H -3.85435e+00  1.91042e+00  7.24787e-01
4
# CELL(abcABC): 1000.00000  1000.00000  1000.00000    90.00000    90.00000    90.00000  Step:          68  Bead:       0 positions{angstrom}  cell{angstrom}
       O -3.14400e+00  1.06826e+00  3.42007e-01
       H -3.33235e+00  2.55844e-01 -7.50450e-02
       H -2.26981e+00  9.53128e-01  5.98588e-01
       H -3.87778e+00  1.90461e+00  7.33316e-01
4
# CELL(abcABC): 1000.00000  1000.00000  1000.00000    90.00000    90.00000    90.00000  Step:          69  Bead:       0 positions{angstrom}  cell{angstrom}
       O -3.14222e+00  1.06849e+00  3.41533e-01
       H -3.32892e+00  2.55677e-01 -7.11155e-02
       H -2.27883e+00  9.56536e-01  5.94446e-01
       H -3.90037e+00  1.89770e+00  7.41064e-01
4
# CELL(abcABC): 1000.00000  1000.00000  1000.00000    90.00000    90.00000    90.00000  Step:          70  Bead:       0 positions{angstrom}  cell{angstrom}
       O -3.14118e+00  1.06891e+00  3.41199e-01
       H -3.32619e+00  2.52425e-01 -7.12313e-02
       H -2.27836e+00  9.59977e-01  5.92118e-01
       H -3.92018e+00  1.89087e+00  7.48807e-01
4
# CELL(abcABC): 1000.00000  1000.00000  1000.00000    90.00000    90.00000    90.00000  Step:          71  Bead:       0 positions{angstrom}  cell{angstrom}
       O -3.14069e+00  1.06969e+00  3.41059e-01
       H -3.32507e+00  2.44697e-01 -7.56737e-02
       H -2.26876e+00  9.62281e-01  5.91466e-01
       H -3.93857e+00  1.88384e+00  7.56118e-01
4
# CELL(abcABC): 1000.00000  1000.00000  1000.00000    90.00000    90.00000    90.00000  Step:          72  Bead:       0 positions{angstrom}  cell{angstrom}
       O -3.14080e+00  1.07057e+00  3.40988e-01
       H -3.32413e+00  2.34999e-01 -8.21446e-02
       H -2.25086e+00  9.64385e-01  5.93184e-01
       H -3.95571e+00  1.87749e+00  7.61992e-01
4
# CELL(abcABC): 1000.00000  1000.00000  1000.00000    90.00000    90.00000    90.00000  Step:          73  Bead:       0 positions{angstrom}  cell{angstrom}
       O -3.14127e+00  1.07156e+00  3.41114e-01
       H -3.32339e+00  2.24299e-01 -9.02994e-02
       H -2.22777e+00  9.66850e-01  5.95678e-01
       H -3.97209e+00  1.87007e+00  7.65666e-01
4
# CELL(abcABC): 1000.00000  1000.00000  1000.00000    90.00000    90.00000    90.00000  Step:          74  Bead:       0 positions{angstrom}  cell{angstrom}
       O -3.14199e+00  1.07244e+00  3.41533e-01
       H -3.32195e+00  2.14299e-01 -1.00457e-01
       H -2.20284e+00  9.69677e-01  5.96791e-01
       H -3.98701e+00  1.86323e+00  7.68050e-01
4
# CELL(abcABC): 1000.00000  1000.00000  1000.00000    90.00000    90.00000    90.00000  Step:          75  Bead:       0 positions{angstrom}  cell{angstrom}
       O -3.14261e+00  1.07320e+00  3.42094e-01
       H -3.32022e+00  2.05279e-01 -1.11082e-01
       H -2.17972e+00  9.72504e-01  5.97610e-01
       H -4.00210e+00  1.85727e+00  7.68959e-01
4
# CELL(abcABC): 1000.00000  1000.00000  1000.00000    90.00000    90.00000    90.00000  Step:          76  Bead:       0 positions{angstrom}  cell{angstrom}
       O -3.14322e+00  1.07360e+00  3.42661e-01
       H -3.31653e+00  1.99629e-01 -1.19819e-01
       H -2.16037e+00  9.76146e-01  5.96869e-01
       H -4.01542e+00  1.85296e+00  7.69427e-01
4
# CELL(abcABC): 1000.00000  1000.00000  1000.00000    90.00000    90.00000    90.00000  Step:          77  Bead:       0 positions{angstrom}  cell{angstrom}
       O -3.14356e+00  1.07367e+00  3.43312e-01
       H -3.31163e+00  1.98703e-01 -1.27254e-01
       H -2.14683e+00  9.80931e-01  5.94715e-01
       H -4.02841e+00  1.84797e+00  7.68685e-01
4
# CELL(abcABC): 1000.00000  1000.00000  1000.00000    90.00000    90.00000    90.00000  Step:          78  Bead:       0 positions{angstrom}  cell{angstrom}
       O -3.14360e+00  1.07345e+00  3.44239e-01
       H -3.30658e+00  2.01166e-01 -1.34090e-01
       H -2.13877e+00  9.87200e-01  5.90111e-01
       H -4.04093e+00  1.84287e+00  7.65405e-01
4
# CELL(abcABC): 1000.00000  1000.00000  1000.00000    90.00000    90.00000    90.00000  Step:          79  Bead:       0 positions{angstrom}  cell{angstrom}
       O -3.14342e+00  1.07302e+00  3.45239e-01
       H -3.30089e+00  2.08199e-01 -1.38013e-01
       H -2.13610e+00  9.93391e-01  5.83088e-01
       H -4.05214e+00  1.83646e+00  7.60485e-01
4
# CELL(abcABC): 1000.00000  1000.00000  1000.00000    90.00000    90.00000    90.00000  Step:          80  Bead:       0 positions{angstrom}  cell{angstrom}
       O -3.14305e+00  1.07234e+00  3.46233e-01
       H -3.29365e+00  2.19121e-01 -1.40425e-01
       H -2.13955e+00  1.00001e+00  5.75025e-01
       H -4.06173e+00  1.82958e+00  7.55187e-01
4
# CELL(abcABC): 1000.00000  1000.00000  1000.00000    90.00000    90.00000    90.00000  Step:          81  Bead:       0 positions{angstrom}  cell{angstrom}
       O -3.14250e+00  1.07134e+00  3.47394e-01
       H -3.28337e+00  2.33701e-01 -1.42333e-01
       H -2.14954e+00  1.00912e+00  5.65321e-01
       H -4.07084e+00  1.82187e+00  7.48371e-01
4
# CELL(abcABC): 1000.00000  1000.00000  1000.00000    90.00000    90.00000    90.00000  Step:          82  Bead:       0 positions{angstrom}  cell{angstrom}
       O -3.14174e+00  1.07035e+00  3.48573e-01
       H -3.27178e+00  2.49259e-01 -1.42989e-01
       H -2.16399e+00  1.01762e+00  5.54132e-01
       H -4.08006e+00  1.81342e+00  7.41500e-01
4
# CELL(abcABC): 1000.00000  1000.00000  1000.00000    90.00000    90.00000    90.00000  Step:          83  Bead:       0 positions{angstrom}  cell{angstrom}
       O -3.14090e+00  1.06929e+00  3.49879e-01
       H -3.25987e+00  2.65312e-01 -1.43558e-01
       H -2.18158e+00  1.02708e+00  5.42062e-01
       H -4.08774e+00  1.80481e+00  7.33407e-01
4
# CELL(abcABC): 1000.00000  1000.00000  1000.00000    90.00000    90.00000    90.00000  Step:          84  Bead:       0 positions{angstrom}  cell{angstrom}
       O -3.14003e+00  1.06832e+00  3.51359e-01
       H -3.24704e+00  2.79030e-01 -1.46467e-01
       H -2.20105e+00  1.03732e+00  5.29622e-01
       H -4.09477e+00  1.79630e+00  7.25269e-01
4
# CELL(abcABC): 1000.00000  1000.00000  1000.00000    90.00000    90.00000    90.00000  Step:          85  Bead:       0 positions{angstrom}  cell{angstrom}