6
# CELL(abcABC): 1000.00000  1000.00000  1000.00000    90.00000    90.00000    90.00000  Step:         443  Bead:       0 positions{angstrom}  cell{angstrom}
       C -6.95992e-01  3.09740e+00 -5.81856e-01
       H -1.15028e+00  3.60998e+00 -1.43273e+00
       H  1.51394e-01  3.66937e+00 -2.34863e-01
       H -3.65214e-01  2.14255e+00 -9.15346e-01
       O -1.55376e+00  2.90463e+00  5.05163e-01
       H -2.18886e+00  2.40378e+00  1.18406e+00
