4
# CELL(abcABC): 1000.00000  1000.00000  1000.00000    90.00000    90.00000    90.00000  Step:           0  Bead:       0 positions{angstrom}  cell{angstrom}
       O -3.14918e+00  1.06866e+00  3.51001e-01
       H -2.68834e+00  2.02460e-01  3.09101e-01
       H -2.93851e+00  1.49977e+00  1.18942e+00
       H -3.77095e+00  1.40501e+00 -3.84449e-01
4
# CELL(abcABC): 1000.00000  1000.00000  1000.00000    90.00000    90.00000    90.00000  Step:           1  Bead:       0 positions{angstrom}  cell{angstrom}
       O -3.14752e+00  1.06889e+00  3.50401e-01
       H -2.69842e+00  1.96540e-01  3.13832e-01
       H -2.93795e+00  1.49877e+00  1.19047e+00
       H -3.78775e+00  1.40822e+00 -3.80704e-01
4
# CELL(abcABC): 1000.00000  1000.00000  1000.00000    90.00000    90.00000    90.00000  Step:           2  Bead:       0 positions{angstrom}  cell{angstrom}
       O -3.14601e+00  1.06901e+00  3.49689e-01
       H -2.70935e+00  1.93352e-01  3.20014e-01
       H -2.93500e+00  1.49708e+00  1.19127e+00
       H -3.80378e+00  1.41127e+00 -3.76383e-01
4
# CELL(abcABC): 1000.00000  1000.00000  1000.00000    90.00000    90.00000    90.00000  Step:           3  Bead:       0 positions{angstrom}  cell{angstrom}
       O -3.14453e+00  1.06909e+00  3.48812e-01
       H -2.72025e+00  1.91165e-01  3.28851e-01
       H -2.93156e+00  1.49587e+00  1.19239e+00
       H -3.81976e+00  1.41341e+00 -3.72429e-01
4
# CELL(abcABC): 1000.00000  1000.00000  1000.00000    90.00000    90.00000    90.00000  Step:           4  Bead:       0 positions{angstrom}  cell{angstrom}
       O -3.14317e+00  1.06919e+00  3.47953e-01
       H -2.73163e+00  1.89476e-01  3.37367e-01
       H -2.92681e+00  1.49477e+00  1.19262e+00
       H -3.83476e+00  1.41464e+00 -3.67537e-01
4
# CELL(abcABC): 1000.00000  1000.00000  1000.00000    90.00000    90.00000    90.00000  Step:           5  Bead:       0 positions{angstrom}  cell{angstrom}
       O -3.14182e+00  1.06918e+00  3.47096e-01
       H -2.74381e+00  1.88950e-01  3.46259e-01
       H -2.92211e+00  1.49436e+00  1.19331e+00
       H -3.84875e+00  1.41568e+00 -3.63507e-01
4
# CELL(abcABC): 1000.00000  1000.00000  1000.00000    90.00000    90.00000    90.00000  Step:           6  Bead:       0 positions{angstrom}  cell{angstrom}
       O -3.14048e+00  1.06931e+00  3.46263e-01
       H -2.75565e+00  1.89134e-01  3.54726e-01
       H -2.91752e+00  1.49191e+00  1.19226e+00
       H -3.86272e+00  1.41595e+00 -3.57709e-01
4
# CELL(abcABC): 1000.00000  1000.00000  1000.00000    90.00000    90.00000    90.00000  Step:           7  Bead:       0 positions{angstrom}  cell{angstrom}
       O -3.13934e+00  1.06943e+00  3.45233e-01
       H -2.76545e+00  1.89062e-01  3.64866e-01
       H -2.91263e+00  1.48872e+00  1.19135e+00
       H -3.87591e+00  1.41729e+00 -3.50583e-01
4
# CELL(abcABC): 1000.00000  1000.00000  1000.00000    90.00000    90.00000    90.00000  Step:           8  Bead:       0 positions{angstrom}  cell{angstrom}
       O -3.13846e+00  1.06968e+00  3.44258e-01
       H -2.77341e+00  1.88175e-01  3.74587e-01
       H -2.90628e+00  1.48428e+00  1.18916e+00
       H -3.88835e+00  1.41860e+00 -3.42647e-01
4
# CELL(abcABC): 1000.00000  1000.00000  1000.00000    90.00000    90.00000    90.00000  Step:           9  Bead:       0 positions{angstrom}  cell{angstrom}
       O -3.13780e+00  1.07014e+00  3.43153e-01
       H -2.78030e+00  1.85279e-01  3.85502e-01
       H -2.89837e+00  1.47979e+00  1.18714e+00
       H -3.89979e+00  1.41862e+00 -3.33995e-01
4
# CELL(abcABC): 1000.00000  1000.00000  1000.00000    90.00000    90.00000    90.00000  Step:          10  Bead:       0 positions{angstrom}  cell{angstrom}
       O -3.13733e+00  1.07065e+00  3.42173e-01
       H -2.78596e+00  1.81205e-01  3.95517e-01
       H -2.88977e+00  1.47594e+00  1.18406e+00
       H -3.91013e+00  1.41859e+00 -3.25375e-01
4
# CELL(abcABC): 1000.00000  1000.00000  1000.00000    90.00000    90.00000    90.00000  Step:          11  Bead:       0 positions{angstrom}  cell{angstrom}
       O -3.13705e+00  1.07123e+00  3.41346e-01
       H -2.79032e+00  1.76982e-01  4.03876e-01
       H -2.88191e+00  1.47194e+00  1.18037e+00
       H -3.91818e+00  1.41755e+00 -3.16917e-01
4
# CELL(abcABC): 1000.00000  1000.00000  1000.00000    90.00000    90.00000    90.00000  Step:          12  Bead:       0 positions{angstrom}  cell{angstrom}
       O -3.13708e+00  1.07190e+00  3.40608e-01
       H -2.79240e+00  1.72151e-01  4.11352e-01
       H -2.87358e+00  1.46710e+00  1.17572e+00
       H -3.92387e+00  1.41658e+00 -3.08032e-01
4
# CELL(abcABC): 1000.00000  1000.00000  1000.00000    90.00000    90.00000    90.00000  Step:          13  Bead:       0 positions{angstrom}  cell{angstrom}
       O -3.13737e+00  1.07256e+00  3.39862e-01
       H -2.79362e+00  1.68103e-01  4.18324e-01
       H -2.86335e+00  1.46282e+00  1.17147e+00
       H -3.92825e+00  1.41449e+00 -2.98905e-01
4
# CELL(abcABC): 1000.00000  1000.00000  1000.00000    90.00000    90.00000    90.00000  Step:          14  Bead:       0 positions{angstrom}  cell{angstrom}
       O -3.13791e+00  1.07311e+00  3.39089e-01
       H -2.79292e+00  1.64535e-01  4.24823e-01
       H -2.85200e+00  1.46011e+00  1.16779e+00
       H -3.93180e+00  1.41200e+00 -2.89457e-01
4
# CELL(abcABC): 1000.00000  1000.00000  1000.00000    90.00000    90.00000    90.00000  Step:          15  Bead:       0 positions{angstrom}  cell{angstrom}
       O -3.13854e+00  1.07341e+00  3.38119e-01
       H -2.79392e+00  1.61775e-01  4.32459e-01
       H -2.84074e+00  1.45911e+00  1.16494e+00
       H -3.93210e+00  1.41091e+00 -2.78842e-01
4
# CELL(abcABC): 1000.00000  1000.00000  1000.00000    90.00000    90.00000    90.00000  Step:          16  Bead:       0 positions{angstrom}  cell{angstrom}
       O -3.13933e+00  1.07347e+00  3.37189e-01
       H -2.79390e+00  1.60317e-01  4.38609e-01
       H -2.82929e+00  1.46051e+00  1.16259e+00
       H -3.93094e+00  1.41006e+00 -2.67880e-01
4
# CELL(abcABC): 1000.00000  1000.00000  1000.00000    90.00000    90.00000    90.00000  Step:          17  Bead:       0 positions{angstrom}  cell{angstrom}
       O -3.14012e+00  1.07333e+00  3.36331e-01
       H -2.79339e+00  1.61206e-01  4.43716e-01
       H -2.81877e+00  1.46391e+00  1.15931e+00
       H -3.92942e+00  1.40803e+00 -2.56091e-01
4
# CELL(abcABC): 1000.00000  1000.00000  1000.00000    90.00000    90.00000    90.00000  Step:          18  Bead:       0 positions{angstrom}  cell{angstrom}
       O -3.14092e+00  1.07290e+00  3.35584e-01
       H -2.79428e+00  1.64773e-01  4.47643e-01
       H -2.80728e+00  1.46856e+00  1.15558e+00
       H -3.92732e+00  1.40653e+00 -2.44436e-01
4
# CELL(abcABC): 1000.00000  1000.00000  1000.00000    90.00000    90.00000    90.00000  Step:          19  Bead:       0 positions{angstrom}  cell{angstrom}
       O -3.14183e+00  1.07237e+00  3.34974e-01
       H -2.79506e+00  1.69667e-01  4.50611e-01
       H -2.79695e+00  1.47376e+00  1.15035e+00
       H -3.92242e+00  1.40491e+00 -2.32495e-01
4
# CELL(abcABC): 1000.00000  1000.00000  1000.00000    90.00000    90.00000    90.00000  Step:          20  Bead:       0 positions{angstrom}  cell{angstrom}
       O -3.14274e+00  1.07177e+00  3.34611e-01
       H -2.79596e+00  1.75896e-01  4.50714e-01
       H -2.78811e+00  1.48003e+00  1.14421e+00
       H -3.91590e+00  1.40193e+00 -2.20689e-01
4
# CELL(abcABC): 1000.00000  1000.00000  1000.00000    90.00000    90.00000    90.00000  Step:          21  Bead:       0 positions{angstrom}  cell{angstrom}
       O -3.14373e+00  1.07112e+00  3.34538e-01
       H -2.79729e+00  1.81755e-01  4.48159e-01
       H -2.77831e+00  1.48769e+00  1.13766e+00
       H -3.90864e+00  1.39873e+00 -2.10412e-01
4
# CELL(abcABC): 1000.00000  1000.00000  1000.00000    90.00000    90.00000    90.00000  Step:          22  Bead:       0 positions{angstrom}  cell{angstrom}
       O -3.14480e+00  1.07041e+00  3.34805e-01
       H -2.79951e+00  1.86096e-01  4.45129e-01
       H -2.76705e+00  1.49625e+00  1.12788e+00
       H -3.90075e+00  1.39718e+00 -2.01859e-01
4
# CELL(abcABC): 1000.00000  1000.00000  1000.00000    90.00000    90.00000    90.00000  Step:          23  Bead:       0 positions{angstrom}  cell{angstrom}
       O -3.14592e+00  1.06974e+00  3.35518e-01
       H -2.80119e+00  1.89680e-01  4.40234e-01
       H -2.75549e+00  1.50579e+00  1.11680e+00
       H -3.89291e+00  1.39461e+00 -1.97185e-01
4
# CELL(abcABC): 1000.00000  1000.00000  1000.00000    90.00000    90.00000    90.00000  Step:          24  Bead:       0 positions{angstrom}  cell{angstrom}
       O -3.14708e+00  1.06908e+00  3.36490e-01
       H -2.80170e+00  1.90451e-01  4.34111e-01
       H -2.74407e+00  1.51672e+00  1.10427e+00
       H -3.88533e+00  1.39341e+00 -1.93975e-01
4
# CELL(abcABC): 1000.00000  1000.00000  1000.00000    90.00000    90.00000    90.00000  Step:          25  Bead:       0 positions{angstrom}  cell{angstrom}
       O -3.14822e+00  1.06862e+00  3.37609e-01
       H -2.80162e+00  1.88275e-01  4.27819e-01
       H -2.73347e+00  1.52714e+00  1.09031e+00
       H -3.87797e+00  1.39242e+00 -1.91486e-01
4
# CELL(abcABC): 1000.00000  1000.00000  1000.00000    90.00000    90.00000    90.00000  Step:          26  Bead:       0 positions{angstrom}  cell{angstrom}
       O -3.14934e+00  1.06836e+00  3.38911e-01
       H -2.80097e+00  1.83767e-01  4.20010e-01
       H -2.72296e+00  1.53725e+00  1.07478e+00
       H -3.87131e+00  1.39103e+00 -1.88799e-01
4
# CELL(abcABC): 1000.00000  1000.00000  1000.00000    90.00000    90.00000    90.00000  Step:          27  Bead:       0 positions{angstrom}  cell{angstrom}
       O -3.15055e+00  1.06815e+00  3.40411e-01
       H -2.80010e+00  1.79144e-01  4.10869e-01
       H -2.71266e+00  1.54643e+00  1.05787e+00
       H -3.86331e+00  1.38980e+00 -1.86563e-01
4
# CELL(abcABC): 1000.00000  1000.00000  1000.00000    90.00000    90.00000    90.00000  Step:          28  Bead:       0 positions{angstrom}  cell{angstrom}
       O -3.15168e+00  1.06797e+00  3.41980e-01
       H -2.80006e+00  1.72555e-01  4.01055e-01
       H -2.70178e+00  1.55569e+00  1.04064e+00
       H -3.85625e+00  1.39001e+00 -1.84432e-01
4
# CELL(abcABC): 1000.00000  1000.00000  1000.00000    90.00000    90.00000    90.00000  Step:          29  Bead:       0 positions{angstrom}  cell{angstrom}
       O -3.15281e+00  1.06771e+00  3.43658e-01
       H -2.79931e+00  1.66638e-01  3.89447e-01
       H -2.69166e+00  1.56487e+00  1.02324e+00
       H -3.84915e+00  1.39083e+00 -1.82051e-01
4
# CELL(abcABC): 1000.00000  1000.00000  1000.00000    90.00000    90.00000    90.00000  Step:          30  Bead:       0 positions{angstrom}  cell{angstrom}
       O -3.15392e+00  1.06725e+00  3.45353e-01
       H -2.79835e+00  1.62797e-01  3.78391e-01
       H -2.68139e+00  1.57404e+00  1.00649e+00
       H -3.84286e+00  1.39284e+00 -1.81146e-01
4
# CELL(abcABC): 1000.00000  1000.00000  1000.00000    90.00000    90.00000    90.00000  Step:          31  Bead:       0 positions{angstrom}  cell{angstrom}
       O -3.15512e+00  1.06653e+00  3.47126e-01
       H -2.79608e+00  1.60651e-01  3.67508e-01
       H -2.67001e+00  1.58438e+00  9.89623e-01
       H -3.83737e+00  1.39600e+00 -1.81555e-01
4
# CELL(abcABC): 1000.00000  1000.00000  1000.00000    90.00000    90.00000    90.00000  Step:          32  Bead:       0 positions{angstrom}  cell{angstrom}
       O -3.15627e+00  1.06576e+00  3.48719e-01
       H -2.79504e+00  1.58435e-01  3.57411e-01
       H -2.65757e+00  1.59595e+00  9.74588e-01
       H -3.83269e+00  1.39892e+00 -1.81707e-01
4
# CELL(abcABC): 1000.00000  1000.00000  1000.00000    90.00000    90.00000    90.00000  Step:          33  Bead:       0 positions{angstrom}  cell{angstrom}
       O -3.15734e+00  1.06498e+00  3.50198e-01
       H -2.79493e+00  1.57494e-01  3.48894e-01
       H -2.64443e+00  1.60617e+00  9.60500e-01
       H -3.82891e+00  1.40203e+00 -1.82576e-01
4
# CELL(abcABC): 1000.00000  1000.00000  1000.00000    90.00000    90.00000    90.00000  Step:          34  Bead:       0 positions{angstrom}  cell{angstrom}
       O -3.15820e+00  1.06414e+00  3.51774e-01
       H -2.79478e+00  1.58300e-01  3.40681e-01
       H -2.63305e+00  1.61512e+00  9.46982e-01
       H -3.82680e+00  1.40564e+00 -1.85861e-01
4
# CELL(abcABC): 1000.00000  1000.00000  1000.00000    90.00000    90.00000    90.00000  Step:          35  Bead:       0 positions{angstrom}  cell{angstrom}
       O -3.15901e+00  1.06320e+00  3.53354e-01
       H -2.79325e+00  1.60752e-01  3.32261e-01
       H -2.62304e+00  1.62391e+00  9.34232e-01
       H -3.82555e+00  1.40918e+00 -1.89770e-01
4
# CELL(abcABC): 1000.00000  1000.00000  1000.00000    90.00000    90.00000    90.00000  Step:          36  Bead:       0 positions{angstrom}  cell{angstrom}
       O -3.15975e+00  1.06218e+00  3.54956e-01
       H -2.79168e+00  1.64643e-01  3.23900e-01
       H -2.61326e+00  1.63261e+00  9.20595e-01
       H -3.82506e+00  1.41287e+00 -1.93205e-01
4
# CELL(abcABC): 1000.00000  1000.00000  1000.00000    90.00000    90.00000    90.00000  Step:          37  Bead:       0 positions{angstrom}  cell{angstrom}
       O -3.16047e+00  1.06125e+00  3.56446e-01
       H -2.78949e+00  1.70339e-01  3.17918e-01
       H -2.60351e+00  1.63903e+00  9.06288e-01
       H -3.82555e+00  1.41546e+00 -1.96570e-01
4
# CELL(abcABC): 1000.00000  1000.00000  1000.00000    90.00000    90.00000    90.00000  Step:          38  Bead:       0 positions{angstrom}  cell{angstrom}
       O -3.16097e+00  1.06042e+00  3.58088e-01
       H -2.78807e+00  1.76211e-01  3.11388e-01
       H -2.59424e+00  1.64250e+00  8.91482e-01
       H -3.82836e+00  1.41931e+00 -2.01293e-01
4
# CELL(abcABC): 1000.00000  1000.00000  1000.00000    90.00000    90.00000    90.00000  Step:          39  Bead:       0 positions{angstrom}  cell{angstrom}
       O -3.16159e+00  1.05986e+00  3.59588e-01
       H -2.78545e+00  1.81238e-01  3.06020e-01
       H -2.58498e+00  1.64293e+00  8.77493e-01
       H -3.83036e+00  1.42272e+00 -2.05752e-01
4
# CELL(abcABC): 1000.00000  1000.00000  1000.00000    90.00000    90.00000    90.00000  Step:          40  Bead:       0 positions{angstrom}  cell{angstrom}
       O -3.16224e+00  1.05944e+00  3.60836e-01
       H -2.78218e+00  1.85682e-01  3.02267e-01
       H -2.57569e+00  1.64173e+00  8.65288e-01
       H -3.83257e+00  1.42625e+00 -2.09595e-01
4
# CELL(abcABC): 1000.00000  1000.00000  1000.00000    90.00000    90.00000    90.00000  Step:          41  Bead:       0 positions{angstrom}  cell{angstrom}
       O -3.16290e+00  1.05917e+00  3.61934e-01
       H -2.77850e+00  1.89761e-01  2.98733e-01
       H -2.56591e+00  1.63930e+00  8.53771e-01
       H -3.83566e+00  1.42876e+00 -2.11973e-01
4
# CELL(abcABC): 1000.00000  1000.00000  1000.00000    90.00000    90.00000    90.00000  Step:          42  Bead:       0 positions{angstrom}  cell{angstrom}
       O -3.16367e+00  1.05925e+00  3.62966e-01
       H -2.77263e+00  1.90589e-01  2.95481e-01
       H -2.55592e+00  1.63548e+00  8.43191e-01
       H -3.83923e+00  1.43058e+00 -2.14523e-01
4
# CELL(abcABC): 1000.00000  1000.00000  1000.00000    90.00000    90.00000    90.00000  Step:          43  Bead:       0 positions{angstrom}  cell{angstrom}
       O -3.16443e+00  1.05944e+00  3.63876e-01
       H -2.76648e+00  1.91050e-01  2.92473e-01
       H -2.54579e+00  1.63179e+00  8.33603e-01
       H -3.84342e+00  1.43073e+00 -2.16380e-01
4
# CELL(abcABC): 1000.00000  1000.00000  1000.00000    90.00000    90.00000    90.00000  Step:          44  Bead:       0 positions{angstrom}  cell{angstrom}
       O -3.16515e+00  1.05983e+00  3.64641e-01
       H -2.75982e+00  1.89942e-01  2.89432e-01
       H -2.53560e+00  1.62666e+00  8.24413e-01
       H -3.84886e+00  1.43081e+00 -2.16294e-01
4
# CELL(abcABC): 1000.00000  1000.00000  1000.00000    90.00000    90.00000    90.00000  Step:          45  Bead:       0 positions{angstrom}  cell{angstrom}
       O -3.16573e+00  1.06036e+00  3.65311e-01
       H -2.75376e+00  1.88565e-01  2.86321e-01
       H -2.52475e+00  1.62013e+00  8.15398e-01
       H -3.85657e+00  1.43036e+00 -2.14790e-01
4
# CELL(abcABC): 1000.00000  1000.00000  1000.00000    90.00000    90.00000    90.00000  Step:          46  Bead:       0 positions{angstrom}  cell{angstrom}
       O -3.16629e+00  1.06097e+00  3.65847e-01
       H -2.74817e+00  1.87894e-01  2.83369e-01
       H -2.51403e+00  1.61221e+00  8.06986e-01
       H -3.86407e+00  1.42916e+00 -2.11945e-01
4
# CELL(abcABC): 1000.00000  1000.00000  1000.00000    90.00000    90.00000    90.00000  Step:          47  Bead:       0 positions{angstrom}  cell{angstrom}
       O -3.16673e+00  1.06150e+00  3.66336e-01
       H -2.74323e+00  1.87426e-01  2.81241e-01
       H -2.50314e+00  1.60428e+00  7.98871e-01
       H -3.87280e+00  1.42925e+00 -2.09457e-01
4
# CELL(abcABC): 1000.00000  1000.00000  1000.00000    90.00000    90.00000    90.00000  Step:          48  Bead:       0 positions{angstrom}  cell{angstrom}
       O -3.16706e+00  1.06208e+00  3.66636e-01
       H -2.73874e+00  1.86663e-01  2.79961e-01
       H -2.49224e+00  1.59698e+00  7.91220e-01
       H -3.88298e+00  1.42798e+00 -2.05288e-01
4
# CELL(abcABC): 1000.00000  1000.00000  1000.00000    90.00000    90.00000    90.00000  Step:          49  Bead:       0 positions{angstrom}  cell{angstrom}
       O -3.16731e+00  1.06262e+00  3.66641e-01
       H -2.73538e+00  1.86405e-01  2.79786e-01
       H -2.48021e+00  1.58964e+00  7.84875e-01
       H -3.89442e+00  1.42714e+00 -1.98846e-01
4
# CELL(abcABC): 1000.00000  1000.00000  1000.00000    90.00000    90.00000    90.00000  Step:          50  Bead:       0 positions{angstrom}  cell{angstrom}
       O -3.16724e+00  1.06314e+00  3.66570e-01
       H -2.73379e+00  1.87345e-01  2.79794e-01
       H -2.47022e+00  1.58190e+00  7.79686e-01
       H -3.90718e+00  1.42557e+00 -1.92537e-01
4
# CELL(abcABC): 1000.00000  1000.00000  1000.00000    90.00000    90.00000    90.00000  Step:          51  Bead:       0 positions{angstrom}  cell{angstrom}
       O -3.16700e+00  1.06358e+00  3.66343e-01
       H -2.73417e+00  1.88873e-01  2.79763e-01
       H -2.46102e+00  1.57496e+00  7.75362e-01
       H -3.91970e+00  1.42402e+00 -1.84576e-01
4
# CELL(abcABC): 1000.00000  1000.00000  1000.00000    90.00000    90.00000    90.00000  Step:          52  Bead:       0 positions{angstrom}  cell{angstrom}
       O -3.16657e+00  1.06404e+00  3.66066e-01
       H -2.73663e+00  1.90969e-01  2.80064e-01
       H -2.45276e+00  1.56807e+00  7.70822e-01
       H -3.93240e+00  1.42151e+00 -1.75951e-01
4
# CELL(abcABC): 1000.00000  1000.00000  1000.00000    90.00000    90.00000    90.00000  Step:          53  Bead:       0 positions{angstrom}  cell{angstrom}
       O -3.16597e+00  1.06442e+00  3.65604e-01
       H -2.74016e+00  1.94033e-01  2.79698e-01
       H -2.44557e+00  1.56338e+00  7.67797e-01
       H -3.94550e+00  1.41720e+00 -1.65220e-01
4
# CELL(abcABC): 1000.00000  1000.00000  1000.00000    90.00000    90.00000    90.00000  Step:          54  Bead:       0 positions{angstrom}  cell{angstrom}
       O -3.16519e+00  1.06485e+00  3.64731e-01
       H -2.74525e+00  1.96187e-01  2.80606e-01
       H -2.43970e+00  1.56025e+00  7.66362e-01
       H -3.95877e+00  1.41131e+00 -1.50842e-01
4
# CELL(abcABC): 1000.00000  1000.00000  1000.00000    90.00000    90.00000    90.00000  Step:          55  Bead:       0 positions{angstrom}  cell{angstrom}
       O -3.16429e+00  1.06530e+00  3.63682e-01
       H -2.75217e+00  1.98012e-01  2.82444e-01
       H -2.43479e+00  1.55807e+00  7.66320e-01
       H -3.97106e+00  1.40444e+00 -1.35990e-01
4
# CELL(abcABC): 1000.00000  1000.00000  1000.00000    90.00000    90.00000    90.00000  Step:          56  Bead:       0 positions{angstrom}  cell{angstrom}
       O -3.16331e+00  1.06577e+00  3.62503e-01
       H -2.75786e+00  1.99126e-01  2.85000e-01
       H -2.43131e+00  1.55636e+00  7.65766e-01
       H -3.98429e+00  1.39768e+00 -1.19271e-01
4
# CELL(abcABC): 1000.00000  1000.00000  1000.00000    90.00000    90.00000    90.00000  Step:          57  Bead:       0 positions{angstrom}  cell{angstrom}
       O -3.16222e+00  1.06625e+00  3.61160e-01
       H -2.76258e+00  1.99463e-01  2.88155e-01
       H -2.43017e+00  1.55488e+00  7.66694e-01
       H -3.99808e+00  1.39108e+00 -1.02031e-01
4
# CELL(abcABC): 1000.00000  1000.00000  1000.00000    90.00000    90.00000    90.00000  Step:          58  Bead:       0 positions{angstrom}  cell{angstrom}
       O -3.16112e+00  1.06687e+00  3.59720e-01
       H -2.76652e+00  1.97432e-01  2.91193e-01
       H -2.42985e+00  1.55406e+00  7.68731e-01
       H -4.01191e+00  1.38422e+00 -8.42488e-02
4
# CELL(abcABC): 1000.00000  1000.00000  1000.00000    90.00000    90.00000    90.00000  Step:          59  Bead:       0 positions{angstrom}  cell{angstrom}
       O -3.16003e+00  1.06751e+00  3.58082e-01
       H -2.76967e+00  1.93965e-01  2.94357e-01
       H -2.43025e+00  1.55439e+00  7.72819e-01
       H -4.02568e+00  1.37722e+00 -6.55065e-02
4
# CELL(abcABC): 1000.00000  1000.00000  1000.00000    90.00000    90.00000    90.00000  Step:          60  Bead:       0 positions{angstrom}  cell{angstrom}
       O -3.15895e+00  1.06825e+00  3.56430e-01
       H -2.77393e+00  1.88874e-01  2.97622e-01
       H -2.43083e+00  1.55462e+00  7.75702e-01
       H -4.03798e+00  1.37018e+00 -4.54312e-02
4
# CELL(abcABC): 1000.00000  1000.00000  1000.00000    90.00000    90.00000    90.00000  Step:          61  Bead:       0 positions{angstrom}  cell{angstrom}
       O -3.15796e+00  1.06909e+00  3.54764e-01
       H -2.77739e+00  1.82454e-01  3.00640e-01
       H -2.43099e+00  1.55503e+00  7.77562e-01
       H -4.05011e+00  1.36301e+00 -2.38690e-02
4
# CELL(abcABC): 1000.00000  1000.00000  1000.00000    90.00000    90.00000    90.00000  Step:          62  Bead:       0 positions{angstrom}  cell{angstrom}
       O -3.15689e+00  1.07001e+00  3.53208e-01
       H -2.78183e+00  1.75054e-01  3.03207e-01
       H -2.43310e+00  1.55521e+00  7.79050e-01
       H -4.06052e+00  1.35559e+00 -3.21190e-03
4
# CELL(abcABC): 1000.00000  1000.00000  1000.00000    90.00000    90.00000    90.00000  Step:          63  Bead:       0 positions{angstrom}  cell{angstrom}
       O -3.15577e+00  1.07078e+00  3.51485e-01
       H -2.78629e+00  1.69239e-01  3.06235e-01
       H -2.43611e+00  1.55488e+00  7.80460e-01
       H -4.07084e+00  1.34949e+00  1.97003e-02
4
# CELL(abcABC): 1000.00000  1000.00000  1000.00000    90.00000    90.00000    90.00000  Step:          64  Bead:       0 positions{angstrom}  cell{angstrom}
       O -3.15470e+00  1.07146e+00  3.49716e-01
       H -2.78994e+00  1.64917e-01  3.10205e-01
       H -2.43912e+00  1.55458e+00  7.82005e-01
       H -4.08119e+00  1.34334e+00  4.22557e-02
4
# CELL(abcABC): 1000.00000  1000.00000  1000.00000    90.00000    90.00000    90.00000  Step:          65  Bead:       0 positions{angstrom}  cell{angstrom}
       O -3.15366e+00  1.07195e+00  3.47975e-01
       H -2.79486e+00  1.62886e-01  3.12975e-01
       H -2.44158e+00  1.55590e+00  7.83513e-01
       H -4.09031e+00  1.33627e+00  6.56190e-02
4
# CELL(abcABC): 1000.00000  1000.00000  1000.00000    90.00000    90.00000    90.00000  Step:          66  Bead:       0 positions{angstrom}  cell{angstrom}
       O -3.15268e+00  1.07219e+00  3.46160e-01
       H -2.80031e+00  1.65302e-01  3.16235e-01
       H -2.44387e+00  1.55613e+00  7.85401e-01
       H -4.09811e+00  1.32971e+00  8.92807e-02
4
# CELL(abcABC): 1000.00000  1000.00000  1000.00000    90.00000    90.00000    90.00000  Step:          67  Bead:       0 positions{angstrom}  cell{angstrom}
       O -3.15169e+00  1.07239e+00  3.44376e-01
       H -2.80575e+00  1.68439e-01  3.18365e-01
       H -2.44548e+00  1.55693e+00  7.87826e-01
       H -4.10670e+00  1.32268e+00  1.13037e-01
4
# CELL(abcABC): 1000.00000  1000.00000  1000.00000    90.00000    90.00000    90.00000  Step:          68  Bead:       0 positions{angstrom}  cell{angstrom}
       O -3.15081e+00  1.07245e+00  3.42796e-01
       H -2.81057e+00  1.72370e-01  3.19748e-01
       H -2.44655e+00  1.55828e+00  7.88562e-01
       H -4.11474e+00  1.31650e+00  1.36006e-01
4
# CELL(abcABC): 1000.00000  1000.00000  1000.00000    90.00000    90.00000    90.00000  Step:          69  Bead:       0 positions{angstrom}  cell{angstrom}
       O -3.14997e+00  1.07257e+00  3.41116e-01
       H -2.81548e+00  1.75125e-01  3.22193e-01
       H -2.44808e+00  1.56022e+00  7.89968e-01
       H -4.12174e+00  1.30990e+00  1.58821e-01
4
# CELL(abcABC): 1000.00000  1000.00000  1000.00000    90.00000    90.00000    90.00000  Step:          70  Bead:       0 positions{angstrom}  cell{angstrom}
       O -3.14939e+00  1.07254e+00  3.39543e-01
       H -2.81946e+00  1.78179e-01  3.23050e-01
       H -2.44917e+00  1.56342e+00  7.90713e-01
       H -4.12586e+00  1.30412e+00  1.82189e-01
4
# CELL(abcABC): 1000.00000  1000.00000  1000.00000    90.00000    90.00000    90.00000  Step:          71  Bead:       0 positions{angstrom}  cell{angstrom}
       O -3.14889e+00  1.07261e+00  3.38166e-01
       H -2.82334e+00  1.79184e-01  3.21772e-01
       H -2.45055e+00  1.56654e+00  7.90440e-01
       H -4.12857e+00  1.29885e+00  2.05599e-01
4
# CELL(abcABC): 1000.00000  1000.00000  1000.00000    90.00000    90.00000    90.00000  Step:          72  Bead:       0 positions{angstrom}  cell{angstrom}
       O -3.14856e+00  1.07263e+00  3.36885e-01
       H -2.82591e+00  1.79135e-01  3.19975e-01
       H -2.45161e+00  1.57019e+00  7.90217e-01
       H -4.13010e+00  1.29495e+00  2.27951e-01
4
# CELL(abcABC): 1000.00000  1000.00000  1000.00000    90.00000    90.00000    90.00000  Step:          73  Bead:       0 positions{angstrom}  cell{angstrom}
       O -3.14833e+00  1.07274e+00  3.35837e-01
       H -2.82755e+00  1.77450e-01  3.17202e-01
       H -2.45266e+00  1.57446e+00  7.89189e-01
       H -4.13101e+00  1.29064e+00  2.48390e-01
4
# CELL(abcABC): 1000.00000  1000.00000  1000.00000    90.00000    90.00000    90.00000  Step:          74  Bead:       0 positions{angstrom}  cell{angstrom}
       O -3.14827e+00  1.07284e+00  3.35125e-01
       H -2.82780e+00  1.74492e-01  3.12297e-01
       H -2.45382e+00  1.57888e+00  7.86050e-01
       H -4.13057e+00  1.28752e+00  2.67726e-01
4
# CELL(abcABC): 1000.00000  1000.00000  1000.00000    90.00000    90.00000    90.00000  Step:          75  Bead:       0 positions{angstrom}  cell{angstrom}
       O -3.14818e+00  1.07301e+00  3.34602e-01
       H -2.82753e+00  1.69578e-01  3.06027e-01
       H -2.45571e+00  1.58273e+00  7.82674e-01
       H -4.13048e+00  1.28583e+00  2.85674e-01
4
# CELL(abcABC): 1000.00000  1000.00000  1000.00000    90.00000    90.00000    90.00000  Step:          76  Bead:       0 positions{angstrom}  cell{angstrom}
       O -3.14828e+00  1.07305e+00  3.34141e-01
       H -2.82556e+00  1.64606e-01  3.00086e-01
       H -2.45781e+00  1.58660e+00  7.78429e-01
       H -4.12876e+00  1.28630e+00  3.03176e-01
4
# CELL(abcABC): 1000.00000  1000.00000  1000.00000    90.00000    90.00000    90.00000  Step:          77  Bead:       0 positions{angstrom}  cell{angstrom}
       O -3.14839e+00  1.07301e+00  3.33823e-01
       H -2.82300e+00  1.60954e-01  2.93480e-01
       H -2.46036e+00  1.59072e+00  7.73892e-01
       H -4.12691e+00  1.28657e+00  3.19374e-01
4
# CELL(abcABC): 1000.00000  1000.00000  1000.00000    90.00000    90.00000    90.00000  Step:          78  Bead:       0 positions{angstrom}  cell{angstrom}
       O -3.14855e+00  1.07288e+00  3.33841e-01
       H -2.82110e+00  1.57615e-01  2.85332e-01
       H -2.46190e+00  1.59540e+00  7.68271e-01
       H -4.12481e+00  1.28719e+00  3.32854e-01
4
# CELL(abcABC): 1000.00000  1000.00000  1000.00000    90.00000    90.00000    90.00000  Step:          79  Bead:       0 positions{angstrom}  cell{angstrom}
       O -3.14885e+00  1.07275e+00  3.33994e-01
       H -2.81949e+00  1.56302e-01  2.77928e-01
       H -2.46175e+00  1.59909e+00  7.61657e-01
       H -4.12172e+00  1.28696e+00  3.44439e-01
4
# CELL(abcABC): 1000.00000  1000.00000  1000.00000    90.00000    90.00000    90.00000  Step:          80  Bead:       0 positions{angstrom}  cell{angstrom}
       O -3.14934e+00  1.07251e+00  3.34202e-01
       H -2.81724e+00  1.57057e-01  2.70075e-01
       H -2.46063e+00  1.60230e+00  7.55331e-01
       H -4.11739e+00  1.28673e+00  3.55315e-01
4
# CELL(abcABC): 1000.00000  1000.00000  1000.00000    90.00000    90.00000    90.00000  Step:          81  Bead:       0 positions{angstrom}  cell{angstrom}
       O -3.14997e+00  1.07203e+00  3.34632e-01
       H -2.81266e+00  1.60563e-01  2.61191e-01
       H -2.45944e+00  1.60712e+00  7.48432e-01
       H -4.11313e+00  1.28613e+00  3.64277e-01
4
# CELL(abcABC): 1000.00000  1000.00000  1000.00000    90.00000    90.00000    90.00000  Step:          82  Bead:       0 positions{angstrom}  cell{angstrom}
       O -3.15067e+00  1.07158e+00  3.35126e-01
       H -2.80717e+00  1.65246e-01  2.52687e-01
       H -2.45735e+00  1.61037e+00  7.40654e-01
       H -4.10968e+00  1.28533e+00  3.72726e-01
4
# CELL(abcABC): 1000.00000  1000.00000  1000.00000    90.00000    90.00000    90.00000  Step:          83  Bead:       0 positions{angstrom}  cell{angstrom}
       O -3.15145e+00  1.07098e+00  3.35778e-01
       H -2.80138e+00  1.71886e-01  2.44233e-01
       H -2.45481e+00  1.61364e+00  7.32042e-01
       H -4.10557e+00  1.28488e+00  3.79439e-01
4
# CELL(abcABC): 1000.00000  1000.00000  1000.00000    90.00000    90.00000    90.00000  Step:          84  Bead:       0 positions{angstrom}  cell{angstrom}
       O -3.15225e+00  1.07033e+00  3.36621e-01
       H -2.79421e+00  1.78887e-01  2.34350e-01
       H -2.45297e+00  1.61672e+00  7.22435e-01
       H -4.10187e+00  1.28508e+00  3.85540e-01
4
# CELL(abcABC): 1000.00000  1000.00000  1000.00000    90.00000    90.00000    90.00000  Step:          85  Bead:       0 positions{angstrom}  cell{angstrom}