4
# CELL(abcABC): 1000.00000  1000.00000  1000.00000    90.00000    90.00000    90.00000  Step:           0  Bead:       0 positions{angstrom}  cell{angstrom}
       O -3.15940e+00  1.06192e+00  3.58097e-01
       H -2.96451e+00  1.53007e+00  1.12479e+00
       H -2.88109e+00  1.12544e-01  3.51078e-01
       H -3.38999e+00  1.57180e+00 -4.74441e-01
4
# CELL(abcABC): 1000.00000  1000.00000  1000.00000    90.00000    90.00000    90.00000  Step:           1  Bead:       0 positions{angstrom}  cell{angstrom}
       O -3.15774e+00  1.06206e+00  3.57312e-01
       H -2.97368e+00  1.52404e+00  1.13142e+00
       H -2.88142e+00  1.13982e-01  3.52324e-01
       H -3.40684e+00  1.57413e+00 -4.69856e-01
4
# CELL(abcABC): 1000.00000  1000.00000  1000.00000    90.00000    90.00000    90.00000  Step:           2  Bead:       0 positions{angstrom}  cell{angstrom}
       O -3.15620e+00  1.06192e+00  3.56055e-01
       H -2.98212e+00  1.52049e+00  1.14320e+00
       H -2.88111e+00  1.19413e-01  3.53689e-01
       H -3.42309e+00  1.57453e+00 -4.63051e-01
4
# CELL(abcABC): 1000.00000  1000.00000  1000.00000    90.00000    90.00000    90.00000  Step:           3  Bead:       0 positions{angstrom}  cell{angstrom}
       O -3.15465e+00  1.06163e+00  3.54348e-01
       H -2.98951e+00  1.51739e+00  1.16033e+00
       H -2.88195e+00  1.29363e-01  3.55747e-01
       H -3.43958e+00  1.57234e+00 -4.55140e-01
4
# CELL(abcABC): 1000.00000  1000.00000  1000.00000    90.00000    90.00000    90.00000  Step:           4  Bead:       0 positions{angstrom}  cell{angstrom}
       O -3.15312e+00  1.06134e+00  3.52491e-01
       H -2.99706e+00  1.51373e+00  1.17816e+00
       H -2.88275e+00  1.42250e-01  3.57327e-01
       H -3.45552e+00  1.56769e+00 -4.45078e-01
4
# CELL(abcABC): 1000.00000  1000.00000  1000.00000    90.00000    90.00000    90.00000  Step:           5  Bead:       0 positions{angstrom}  cell{angstrom}
       O -3.15148e+00  1.06105e+00  3.50600e-01
       H -3.00576e+00  1.50979e+00  1.19571e+00
       H -2.88443e+00  1.56984e-01  3.59780e-01
       H -3.47110e+00  1.56152e+00 -4.35057e-01
4
# CELL(abcABC): 1000.00000  1000.00000  1000.00000    90.00000    90.00000    90.00000  Step:           6  Bead:       0 positions{angstrom}  cell{angstrom}
       O -3.14973e+00  1.06111e+00  3.48811e-01
       H -3.01508e+00  1.50505e+00  1.21069e+00
       H -2.88643e+00  1.68754e-01  3.61006e-01
       H -3.48750e+00  1.55352e+00 -4.22866e-01
4
# CELL(abcABC): 1000.00000  1000.00000  1000.00000    90.00000    90.00000    90.00000  Step:           7  Bead:       0 positions{angstrom}  cell{angstrom}
       O -3.14804e+00  1.06147e+00  3.47015e-01
       H -3.02381e+00  1.49873e+00  1.22408e+00
       H -2.88786e+00  1.76914e-01  3.62718e-01
       H -3.50426e+00  1.54584e+00 -4.09468e-01
4
# CELL(abcABC): 1000.00000  1000.00000  1000.00000    90.00000    90.00000    90.00000  Step:           8  Bead:       0 positions{angstrom}  cell{angstrom}
       O -3.14643e+00  1.06234e+00  3.45557e-01
       H -3.03250e+00  1.49053e+00  1.23299e+00
       H -2.88721e+00  1.79484e-01  3.63409e-01
       H -3.52172e+00  1.53776e+00 -3.95919e-01
4
# CELL(abcABC): 1000.00000  1000.00000  1000.00000    90.00000    90.00000    90.00000  Step:           9  Bead:       0 positions{angstrom}  cell{angstrom}
       O -3.14486e+00  1.06377e+00  3.44317e-01
       H -3.04202e+00  1.47956e+00  1.23874e+00
       H -2.88437e+00  1.77117e-01  3.64240e-01
       H -3.53998e+00  1.52836e+00 -3.82826e-01
4
# CELL(abcABC): 1000.00000  1000.00000  1000.00000    90.00000    90.00000    90.00000  Step:          10  Bead:       0 positions{angstrom}  cell{angstrom}
       O -3.14326e+00  1.06554e+00  3.43584e-01
       H -3.05213e+00  1.46684e+00  1.23942e+00
       H -2.88039e+00  1.70928e-01  3.63780e-01
       H -3.55929e+00  1.51925e+00 -3.71400e-01
4
# CELL(abcABC): 1000.00000  1000.00000  1000.00000    90.00000    90.00000    90.00000  Step:          11  Bead:       0 positions{angstrom}  cell{angstrom}
       O -3.14159e+00  1.06758e+00  3.43371e-01
       H -3.06252e+00  1.45360e+00  1.23497e+00
       H -2.87713e+00  1.61208e-01  3.62244e-01
       H -3.57871e+00  1.50975e+00 -3.62046e-01
4
# CELL(abcABC): 1000.00000  1000.00000  1000.00000    90.00000    90.00000    90.00000  Step:          12  Bead:       0 positions{angstrom}  cell{angstrom}
       O -3.13996e+00  1.06979e+00  3.43557e-01
       H -3.07188e+00  1.43969e+00  1.22751e+00
       H -2.87391e+00  1.48715e-01  3.58978e-01
       H -3.59836e+00  1.50106e+00 -3.54269e-01
4
# CELL(abcABC): 1000.00000  1000.00000  1000.00000    90.00000    90.00000    90.00000  Step:          13  Bead:       0 positions{angstrom}  cell{angstrom}
       O -3.13830e+00  1.07195e+00  3.43946e-01
       H -3.08122e+00  1.42674e+00  1.21923e+00
       H -2.86991e+00  1.36459e-01  3.54971e-01
       H -3.61933e+00  1.49207e+00 -3.48149e-01
4
# CELL(abcABC): 1000.00000  1000.00000  1000.00000    90.00000    90.00000    90.00000  Step:          14  Bead:       0 positions{angstrom}  cell{angstrom}
       O -3.13660e+00  1.07384e+00  3.44381e-01
       H -3.08909e+00  1.41480e+00  1.21224e+00
       H -2.86640e+00  1.26957e-01  3.50231e-01
       H -3.64197e+00  1.48342e+00 -3.43319e-01
4
# CELL(abcABC): 1000.00000  1000.00000  1000.00000    90.00000    90.00000    90.00000  Step:          15  Bead:       0 positions{angstrom}  cell{angstrom}
       O -3.13473e+00  1.07526e+00  3.44534e-01
       H -3.09876e+00  1.40445e+00  1.21012e+00
       H -2.86483e+00  1.21444e-01  3.45062e-01
       H -3.66361e+00  1.47677e+00 -3.38456e-01
4
# CELL(abcABC): 1000.00000  1000.00000  1000.00000    90.00000    90.00000    90.00000  Step:          16  Bead:       0 positions{angstrom}  cell{angstrom}
       O -3.13280e+00  1.07617e+00  3.44511e-01
       H -3.10726e+00  1.39624e+00  1.21152e+00
       H -2.86495e+00  1.21230e-01  3.39424e-01
       H -3.68562e+00  1.47070e+00 -3.33856e-01
4
# CELL(abcABC): 1000.00000  1000.00000  1000.00000    90.00000    90.00000    90.00000  Step:          17  Bead:       0 positions{angstrom}  cell{angstrom}
       O -3.13070e+00  1.07664e+00  3.44245e-01
       H -3.11495e+00  1.39113e+00  1.21741e+00
       H -2.86762e+00  1.26036e-01  3.32366e-01
       H -3.70865e+00  1.46359e+00 -3.28471e-01
4
# CELL(abcABC): 1000.00000  1000.00000  1000.00000    90.00000    90.00000    90.00000  Step:          18  Bead:       0 positions{angstrom}  cell{angstrom}
       O -3.12850e+00  1.07664e+00  3.43740e-01
       H -3.12363e+00  1.38919e+00  1.22721e+00
       H -2.87054e+00  1.34673e-01  3.24839e-01
       H -3.73193e+00  1.45689e+00 -3.22721e-01
4
# CELL(abcABC): 1000.00000  1000.00000  1000.00000    90.00000    90.00000    90.00000  Step:          19  Bead:       0 positions{angstrom}  cell{angstrom}
       O -3.12638e+00  1.07643e+00  3.43034e-01
       H -3.13184e+00  1.38888e+00  1.23988e+00
       H -2.87523e+00  1.45513e-01  3.16319e-01
       H -3.75263e+00  1.44972e+00 -3.15672e-01
4
# CELL(abcABC): 1000.00000  1000.00000  1000.00000    90.00000    90.00000    90.00000  Step:          20  Bead:       0 positions{angstrom}  cell{angstrom}
       O -3.12431e+00  1.07616e+00  3.42299e-01
       H -3.13981e+00  1.39003e+00  1.25180e+00
       H -2.88141e+00  1.57756e-01  3.07767e-01
       H -3.77141e+00  1.44065e+00 -3.07366e-01
4
# CELL(abcABC): 1000.00000  1000.00000  1000.00000    90.00000    90.00000    90.00000  Step:          21  Bead:       0 positions{angstrom}  cell{angstrom}
       O -3.12243e+00  1.07595e+00  3.41648e-01
       H -3.14791e+00  1.39096e+00  1.26152e+00
       H -2.88592e+00  1.70039e-01  2.99941e-01
       H -3.78866e+00  1.43074e+00 -2.98940e-01
4
# CELL(abcABC): 1000.00000  1000.00000  1000.00000    90.00000    90.00000    90.00000  Step:          22  Bead:       0 positions{angstrom}  cell{angstrom}
       O -3.12080e+00  1.07589e+00  3.41190e-01
       H -3.15671e+00  1.39076e+00  1.26990e+00
       H -2.88756e+00  1.80156e-01  2.90293e-01
       H -3.80406e+00  1.42179e+00 -2.90393e-01
4
# CELL(abcABC): 1000.00000  1000.00000  1000.00000    90.00000    90.00000    90.00000  Step:          23  Bead:       0 positions{angstrom}  cell{angstrom}
       O -3.11946e+00  1.07617e+00  3.41080e-01
       H -3.16479e+00  1.39038e+00  1.27447e+00
       H -2.88693e+00  1.86790e-01  2.80809e-01
       H -3.81784e+00  1.41109e+00 -2.83742e-01
4
# CELL(abcABC): 1000.00000  1000.00000  1000.00000    90.00000    90.00000    90.00000  Step:          24  Bead:       0 positions{angstrom}  cell{angstrom}
       O -3.11845e+00  1.07677e+00  3.41167e-01
       H -3.17159e+00  1.38805e+00  1.27524e+00
       H -2.88410e+00  1.89615e-01  2.71385e-01
       H -3.82987e+00  1.40103e+00 -2.76463e-01
4
# CELL(abcABC): 1000.00000  1000.00000  1000.00000    90.00000    90.00000    90.00000  Step:          25  Bead:       0 positions{angstrom}  cell{angstrom}
       O -3.11773e+00  1.07789e+00  3.41343e-01
       H -3.17764e+00  1.38372e+00  1.27311e+00
       H -2.87962e+00  1.86779e-01  2.62026e-01
       H -3.83975e+00  1.39049e+00 -2.67772e-01
4
# CELL(abcABC): 1000.00000  1000.00000  1000.00000    90.00000    90.00000    90.00000  Step:          26  Bead:       0 positions{angstrom}  cell{angstrom}
       O -3.11731e+00  1.07944e+00  3.41637e-01
       H -3.18284e+00  1.37782e+00  1.26701e+00
       H -2.87299e+00  1.79564e-01  2.52504e-01
       H -3.84785e+00  1.37898e+00 -2.56814e-01
4
# CELL(abcABC): 1000.00000  1000.00000  1000.00000    90.00000    90.00000    90.00000  Step:          27  Bead:       0 positions{angstrom}  cell{angstrom}
       O -3.11727e+00  1.08119e+00  3.42036e-01
       H -3.18732e+00  1.37223e+00  1.25788e+00
       H -2.86488e+00  1.69125e-01  2.42911e-01
       H -3.85208e+00  1.36719e+00 -2.44422e-01
4
# CELL(abcABC): 1000.00000  1000.00000  1000.00000    90.00000    90.00000    90.00000  Step:          28  Bead:       0 positions{angstrom}  cell{angstrom}
       O -3.11741e+00  1.08298e+00  3.42367e-01
       H -3.19201e+00  1.36486e+00  1.24757e+00
       H -2.85523e+00  1.58550e-01  2.34133e-01
       H -3.85491e+00  1.35663e+00 -2.30580e-01
4
# CELL(abcABC): 1000.00000  1000.00000  1000.00000    90.00000    90.00000    90.00000  Step:          29  Bead:       0 positions{angstrom}  cell{angstrom}
       O -3.11773e+00  1.08460e+00  3.42610e-01
       H -3.19520e+00  1.35805e+00  1.23643e+00
       H -2.84615e+00  1.49672e-01  2.26187e-01
       H -3.85568e+00  1.34669e+00 -2.15365e-01
4
# CELL(abcABC): 1000.00000  1000.00000  1000.00000    90.00000    90.00000    90.00000  Step:          30  Bead:       0 positions{angstrom}  cell{angstrom}
       O -3.11815e+00  1.08580e+00  3.42618e-01
       H -3.19730e+00  1.35299e+00  1.22847e+00
       H -2.83742e+00  1.44090e-01  2.19723e-01
       H -3.85572e+00  1.33820e+00 -2.01063e-01
4
# CELL(abcABC): 1000.00000  1000.00000  1000.00000    90.00000    90.00000    90.00000  Step:          31  Bead:       0 positions{angstrom}  cell{angstrom}
       O -3.11872e+00  1.08647e+00  3.42420e-01
       H -3.19718e+00  1.34925e+00  1.22453e+00
       H -2.82858e+00  1.44045e-01  2.13847e-01
       H -3.85560e+00  1.33137e+00 -1.88108e-01
4
# CELL(abcABC): 1000.00000  1000.00000  1000.00000    90.00000    90.00000    90.00000  Step:          32  Bead:       0 positions{angstrom}  cell{angstrom}
       O -3.11924e+00  1.08676e+00  3.41760e-01
       H -3.19734e+00  1.34495e+00  1.22580e+00
       H -2.81990e+00  1.50127e-01  2.10463e-01
       H -3.85590e+00  1.32507e+00 -1.75519e-01
4
# CELL(abcABC): 1000.00000  1000.00000  1000.00000    90.00000    90.00000    90.00000  Step:          33  Bead:       0 positions{angstrom}  cell{angstrom}
       O -3.11966e+00  1.08671e+00  3.40756e-01
       H -3.19741e+00  1.34117e+00  1.23277e+00
       H -2.81158e+00  1.59851e-01  2.08778e-01
       H -3.85732e+00  1.31993e+00 -1.64855e-01
4
# CELL(abcABC): 1000.00000  1000.00000  1000.00000    90.00000    90.00000    90.00000  Step:          34  Bead:       0 positions{angstrom}  cell{angstrom}
       O -3.11986e+00  1.08630e+00  3.39722e-01
       H -3.19632e+00  1.33801e+00  1.24293e+00
       H -2.80570e+00  1.73013e-01  2.08465e-01
       H -3.86112e+00  1.31641e+00 -1.58299e-01
4
# CELL(abcABC): 1000.00000  1000.00000  1000.00000    90.00000    90.00000    90.00000  Step:          35  Bead:       0 positions{angstrom}  cell{angstrom}
       O -3.12002e+00  1.08557e+00  3.38696e-01
       H -3.19270e+00  1.33513e+00  1.25410e+00
       H -2.80136e+00  1.89824e-01  2.09594e-01
       H -3.86667e+00  1.31401e+00 -1.54312e-01
4
# CELL(abcABC): 1000.00000  1000.00000  1000.00000    90.00000    90.00000    90.00000  Step:          36  Bead:       0 positions{angstrom}  cell{angstrom}
       O -3.12017e+00  1.08463e+00  3.37822e-01
       H -3.18791e+00  1.33221e+00  1.26486e+00
       H -2.79665e+00  2.08843e-01  2.10264e-01
       H -3.87380e+00  1.31294e+00 -1.51869e-01
4
# CELL(abcABC): 1000.00000  1000.00000  1000.00000    90.00000    90.00000    90.00000  Step:          37  Bead:       0 positions{angstrom}  cell{angstrom}
       O -3.12042e+00  1.08377e+00  3.37078e-01
       H -3.18148e+00  1.32973e+00  1.27602e+00
       H -2.79040e+00  2.25919e-01  2.10352e-01
       H -3.88246e+00  1.31189e+00 -1.51312e-01
4
# CELL(abcABC): 1000.00000  1000.00000  1000.00000    90.00000    90.00000    90.00000  Step:          38  Bead:       0 positions{angstrom}  cell{angstrom}
       O -3.12065e+00  1.08312e+00  3.36829e-01
       H -3.17501e+00  1.32635e+00  1.28329e+00
       H -2.78216e+00  2.38424e-01  2.09617e-01
       H -3.89355e+00  1.31309e+00 -1.53889e-01
4
# CELL(abcABC): 1000.00000  1000.00000  1000.00000    90.00000    90.00000    90.00000  Step:          39  Bead:       0 positions{angstrom}  cell{angstrom}
       O -3.12126e+00  1.08292e+00  3.36837e-01
       H -3.16678e+00  1.32159e+00  1.28762e+00
       H -2.77093e+00  2.44866e-01  2.08916e-01
       H -3.90326e+00  1.31468e+00 -1.57647e-01
4
# CELL(abcABC): 1000.00000  1000.00000  1000.00000    90.00000    90.00000    90.00000  Step:          40  Bead:       0 positions{angstrom}  cell{angstrom}
       O -3.12219e+00  1.08302e+00  3.37014e-01
       H -3.15758e+00  1.31621e+00  1.28917e+00
       H -2.75665e+00  2.46298e-01  2.08852e-01
       H -3.91201e+00  1.31705e+00 -1.61932e-01
4
# CELL(abcABC): 1000.00000  1000.00000  1000.00000    90.00000    90.00000    90.00000  Step:          41  Bead:       0 positions{angstrom}  cell{angstrom}
       O -3.12340e+00  1.08339e+00  3.37452e-01
       H -3.14788e+00  1.31095e+00  1.28660e+00
       H -2.73923e+00  2.43724e-01  2.08144e-01
       H -3.91997e+00  1.31893e+00 -1.65618e-01
4
# CELL(abcABC): 1000.00000  1000.00000  1000.00000    90.00000    90.00000    90.00000  Step:          42  Bead:       0 positions{angstrom}  cell{angstrom}
       O -3.12497e+00  1.08410e+00  3.38187e-01
       H -3.13608e+00  1.30349e+00  1.28056e+00
       H -2.71966e+00  2.38378e-01  2.07005e-01
       H -3.92633e+00  1.32050e+00 -1.70107e-01
4
# CELL(abcABC): 1000.00000  1000.00000  1000.00000    90.00000    90.00000    90.00000  Step:          43  Bead:       0 positions{angstrom}  cell{angstrom}
       O -3.12674e+00  1.08480e+00  3.39084e-01
       H -3.12407e+00  1.29689e+00  1.27206e+00
       H -2.69902e+00  2.33542e-01  2.05505e-01
       H -3.93092e+00  1.32074e+00 -1.74329e-01
4
# CELL(abcABC): 1000.00000  1000.00000  1000.00000    90.00000    90.00000    90.00000  Step:          44  Bead:       0 positions{angstrom}  cell{angstrom}
       O -3.12863e+00  1.08547e+00  3.40014e-01
       H -3.11155e+00  1.29015e+00  1.26221e+00
       H -2.67830e+00  2.29307e-01  2.03122e-01
       H -3.93423e+00  1.32118e+00 -1.76878e-01
4
# CELL(abcABC): 1000.00000  1000.00000  1000.00000    90.00000    90.00000    90.00000  Step:          45  Bead:       0 positions{angstrom}  cell{angstrom}
       O -3.13049e+00  1.08595e+00  3.40917e-01
       H -3.09941e+00  1.28459e+00  1.25265e+00
       H -2.65784e+00  2.27046e-01  1.99664e-01
       H -3.93719e+00  1.32133e+00 -1.78185e-01
4
# CELL(abcABC): 1000.00000  1000.00000  1000.00000    90.00000    90.00000    90.00000  Step:          46  Bead:       0 positions{angstrom}  cell{angstrom}
       O -3.13242e+00  1.08614e+00  3.41647e-01
       H -3.08723e+00  1.28120e+00  1.24526e+00
       H -2.63927e+00  2.27776e-01  1.95566e-01
       H -3.93733e+00  1.32093e+00 -1.78276e-01
4
# CELL(abcABC): 1000.00000  1000.00000  1000.00000    90.00000    90.00000    90.00000  Step:          47  Bead:       0 positions{angstrom}  cell{angstrom}
       O -3.13429e+00  1.08583e+00  3.42211e-01
       H -3.07490e+00  1.27946e+00  1.24201e+00
       H -2.62296e+00  2.33367e-01  1.90479e-01
       H -3.93626e+00  1.32204e+00 -1.78887e-01
4
# CELL(abcABC): 1000.00000  1000.00000  1000.00000    90.00000    90.00000    90.00000  Step:          48  Bead:       0 positions{angstrom}  cell{angstrom}
       O -3.13608e+00  1.08517e+00  3.42443e-01
       H -3.06196e+00  1.27880e+00  1.24346e+00
       H -2.60946e+00  2.44493e-01  1.84500e-01
       H -3.93437e+00  1.32200e+00 -1.78053e-01
4
# CELL(abcABC): 1000.00000  1000.00000  1000.00000    90.00000    90.00000    90.00000  Step:          49  Bead:       0 positions{angstrom}  cell{angstrom}
       O -3.13781e+00  1.08410e+00  3.42275e-01
       H -3.04889e+00  1.27972e+00  1.24951e+00
       H -2.59771e+00  2.60070e-01  1.78374e-01
       H -3.93176e+00  1.32263e+00 -1.75314e-01
4
# CELL(abcABC): 1000.00000  1000.00000  1000.00000    90.00000    90.00000    90.00000  Step:          50  Bead:       0 positions{angstrom}  cell{angstrom}
       O -3.13924e+00  1.08271e+00  3.42018e-01
       H -3.03625e+00  1.28254e+00  1.25805e+00
       H -2.59049e+00  2.79056e-01  1.71874e-01
       H -3.92884e+00  1.32278e+00 -1.73275e-01
4
# CELL(abcABC): 1000.00000  1000.00000  1000.00000    90.00000    90.00000    90.00000  Step:          51  Bead:       0 positions{angstrom}  cell{angstrom}
       O -3.14055e+00  1.08103e+00  3.41717e-01
       H -3.02435e+00  1.28636e+00  1.26729e+00
       H -2.58600e+00  3.01452e-01  1.64501e-01
       H -3.92444e+00  1.32324e+00 -1.70353e-01
4
# CELL(abcABC): 1000.00000  1000.00000  1000.00000    90.00000    90.00000    90.00000  Step:          52  Bead:       0 positions{angstrom}  cell{angstrom}
       O -3.14171e+00  1.07927e+00  3.41608e-01
       H -3.01353e+00  1.29097e+00  1.27604e+00
       H -2.58341e+00  3.24947e-01  1.54899e-01
       H -3.91941e+00  1.32307e+00 -1.67785e-01
4
# CELL(abcABC): 1000.00000  1000.00000  1000.00000    90.00000    90.00000    90.00000  Step:          53  Bead:       0 positions{angstrom}  cell{angstrom}
       O -3.14279e+00  1.07744e+00  3.41680e-01
       H -3.00308e+00  1.29672e+00  1.28195e+00
       H -2.58170e+00  3.49888e-01  1.44450e-01
       H -3.91444e+00  1.32149e+00 -1.64381e-01
4
# CELL(abcABC): 1000.00000  1000.00000  1000.00000    90.00000    90.00000    90.00000  Step:          54  Bead:       0 positions{angstrom}  cell{angstrom}
       O -3.14379e+00  1.07578e+00  3.41806e-01
       H -2.99388e+00  1.30185e+00  1.28602e+00
       H -2.57962e+00  3.73711e-01  1.32855e-01
       H -3.90983e+00  1.31882e+00 -1.58856e-01
4
# CELL(abcABC): 1000.00000  1000.00000  1000.00000    90.00000    90.00000    90.00000  Step:          55  Bead:       0 positions{angstrom}  cell{angstrom}
       O -3.14484e+00  1.07436e+00  3.42300e-01
       H -2.98656e+00  1.30714e+00  1.28729e+00
       H -2.57519e+00  3.94054e-01  1.19549e-01
       H -3.90502e+00  1.31577e+00 -1.54651e-01
4
# CELL(abcABC): 1000.00000  1000.00000  1000.00000    90.00000    90.00000    90.00000  Step:          56  Bead:       0 positions{angstrom}  cell{angstrom}
       O -3.14598e+00  1.07320e+00  3.43249e-01
       H -2.97842e+00  1.31249e+00  1.28527e+00
       H -2.56763e+00  4.09405e-01  1.02445e-01
       H -3.90251e+00  1.31354e+00 -1.50597e-01
4
# CELL(abcABC): 1000.00000  1000.00000  1000.00000    90.00000    90.00000    90.00000  Step:          57  Bead:       0 positions{angstrom}  cell{angstrom}
       O -3.14716e+00  1.07229e+00  3.44614e-01
       H -2.96997e+00  1.31810e+00  1.27996e+00
       H -2.55752e+00  4.19420e-01  8.36229e-02
       H -3.90236e+00  1.31228e+00 -1.48141e-01
4
# CELL(abcABC): 1000.00000  1000.00000  1000.00000    90.00000    90.00000    90.00000  Step:          58  Bead:       0 positions{angstrom}  cell{angstrom}
       O -3.14843e+00  1.07168e+00  3.46404e-01
       H -2.96152e+00  1.32261e+00  1.27111e+00
       H -2.54386e+00  4.25288e-01  6.31174e-02
       H -3.90430e+00  1.31160e+00 -1.47183e-01
4
# CELL(abcABC): 1000.00000  1000.00000  1000.00000    90.00000    90.00000    90.00000  Step:          59  Bead:       0 positions{angstrom}  cell{angstrom}
       O -3.14973e+00  1.07117e+00  3.48396e-01
       H -2.95302e+00  1.32702e+00  1.25982e+00
       H -2.52784e+00  4.28986e-01  4.26628e-02
       H -3.90827e+00  1.31159e+00 -1.47071e-01
4
# CELL(abcABC): 1000.00000  1000.00000  1000.00000    90.00000    90.00000    90.00000  Step:          60  Bead:       0 positions{angstrom}  cell{angstrom}
       O -3.15098e+00  1.07074e+00  3.50613e-01
       H -2.94612e+00  1.33107e+00  1.24725e+00
       H -2.51038e+00  4.31084e-01  2.00487e-02
       H -3.91276e+00  1.31230e+00 -1.47068e-01
4
# CELL(abcABC): 1000.00000  1000.00000  1000.00000    90.00000    90.00000    90.00000  Step:          61  Bead:       0 positions{angstrom}  cell{angstrom}
       O -3.15219e+00  1.07025e+00  3.52863e-01
       H -2.93856e+00  1.33496e+00  1.23446e+00
       H -2.49261e+00  4.33665e-01 -3.35630e-03
       H -3.91884e+00  1.31353e+00 -1.46606e-01
4
# CELL(abcABC): 1000.00000  1000.00000  1000.00000    90.00000    90.00000    90.00000  Step:          62  Bead:       0 positions{angstrom}  cell{angstrom}
       O -3.15315e+00  1.06965e+00  3.55074e-01
       H -2.93160e+00  1.33878e+00  1.22275e+00
       H -2.47847e+00  4.37909e-01 -2.57293e-02
       H -3.92471e+00  1.31502e+00 -1.47615e-01
4
# CELL(abcABC): 1000.00000  1000.00000  1000.00000    90.00000    90.00000    90.00000  Step:          63  Bead:       0 positions{angstrom}  cell{angstrom}
       O -3.15385e+00  1.06866e+00  3.56793e-01
       H -2.92376e+00  1.34478e+00  1.21444e+00
       H -2.46827e+00  4.44496e-01 -4.58736e-02
       H -3.93165e+00  1.31816e+00 -1.46442e-01
4
# CELL(abcABC): 1000.00000  1000.00000  1000.00000    90.00000    90.00000    90.00000  Step:          64  Bead:       0 positions{angstrom}  cell{angstrom}
       O -3.15438e+00  1.06734e+00  3.58023e-01
       H -2.91385e+00  1.35256e+00  1.21080e+00
       H -2.46206e+00  4.54451e-01 -6.29569e-02
       H -3.93944e+00  1.32143e+00 -1.45246e-01
4
# CELL(abcABC): 1000.00000  1000.00000  1000.00000    90.00000    90.00000    90.00000  Step:          65  Bead:       0 positions{angstrom}  cell{angstrom}
       O -3.15470e+00  1.06562e+00  3.58794e-01
       H -2.90387e+00  1.36252e+00  1.20959e+00
       H -2.45983e+00  4.69390e-01 -7.67942e-02
       H -3.94646e+00  1.32375e+00 -1.42421e-01
4
# CELL(abcABC): 1000.00000  1000.00000  1000.00000    90.00000    90.00000    90.00000  Step:          66  Bead:       0 positions{angstrom}  cell{angstrom}
       O -3.15486e+00  1.06351e+00  3.59013e-01
       H -2.89332e+00  1.37648e+00  1.21187e+00
       H -2.46193e+00  4.86383e-01 -8.68311e-02
       H -3.95237e+00  1.32638e+00 -1.38148e-01
4
# CELL(abcABC): 1000.00000  1000.00000  1000.00000    90.00000    90.00000    90.00000  Step:          67  Bead:       0 positions{angstrom}  cell{angstrom}
       O -3.15479e+00  1.06123e+00  3.58863e-01
       H -2.88221e+00  1.39064e+00  1.21473e+00
       H -2.46743e+00  5.06480e-01 -9.30601e-02
       H -3.95907e+00  1.32819e+00 -1.32400e-01
4
# CELL(abcABC): 1000.00000  1000.00000  1000.00000    90.00000    90.00000    90.00000  Step:          68  Bead:       0 positions{angstrom}  cell{angstrom}
       O -3.15464e+00  1.05878e+00  3.58618e-01
       H -2.87061e+00  1.40504e+00  1.21719e+00
       H -2.47551e+00  5.28832e-01 -9.81568e-02
       H -3.96509e+00  1.33034e+00 -1.25877e-01
4
# CELL(abcABC): 1000.00000  1000.00000  1000.00000    90.00000    90.00000    90.00000  Step:          69  Bead:       0 positions{angstrom}  cell{angstrom}
       O -3.15436e+00  1.05643e+00  3.58095e-01
       H -2.85994e+00  1.41774e+00  1.21978e+00
       H -2.48582e+00  5.52371e-01 -1.00509e-01
       H -3.96979e+00  1.33143e+00 -1.17810e-01
4
# CELL(abcABC): 1000.00000  1000.00000  1000.00000    90.00000    90.00000    90.00000  Step:          70  Bead:       0 positions{angstrom}  cell{angstrom}
       O -3.15428e+00  1.05406e+00  3.57638e-01
       H -2.84984e+00  1.43017e+00  1.21872e+00
       H -2.49562e+00  5.76411e-01 -1.02570e-01
       H -3.97133e+00  1.33257e+00 -1.07433e-01
4
# CELL(abcABC): 1000.00000  1000.00000  1000.00000    90.00000    90.00000    90.00000  Step:          71  Bead:       0 positions{angstrom}  cell{angstrom}
       O -3.15430e+00  1.05201e+00  3.57465e-01
       H -2.84167e+00  1.44009e+00  1.21277e+00
       H -2.50351e+00  5.98234e-01 -1.05996e-01
       H -3.97134e+00  1.33342e+00 -9.53198e-02
4
# CELL(abcABC): 1000.00000  1000.00000  1000.00000    90.00000    90.00000    90.00000  Step:          72  Bead:       0 positions{angstrom}  cell{angstrom}
       O -3.15460e+00  1.05018e+00  3.57576e-01
       H -2.83450e+00  1.44857e+00  1.20340e+00
       H -2.50699e+00  6.17320e-01 -1.10998e-01
       H -3.97031e+00  1.33487e+00 -8.26963e-02
4
# CELL(abcABC): 1000.00000  1000.00000  1000.00000    90.00000    90.00000    90.00000  Step:          73  Bead:       0 positions{angstrom}  cell{angstrom}
       O -3.15515e+00  1.04875e+00  3.58155e-01
       H -2.82880e+00  1.45509e+00  1.19038e+00
       H -2.50511e+00  6.33170e-01 -1.19301e-01
       H -3.96913e+00  1.33516e+00 -7.05777e-02
4
# CELL(abcABC): 1000.00000  1000.00000  1000.00000    90.00000    90.00000    90.00000  Step:          74  Bead:       0 positions{angstrom}  cell{angstrom}
       O -3.15603e+00  1.04761e+00  3.59285e-01
       H -2.82397e+00  1.46006e+00  1.17325e+00
       H -2.49773e+00  6.45451e-01 -1.32372e-01
       H -3.96746e+00  1.33598e+00 -5.83111e-02
4
# CELL(abcABC): 1000.00000  1000.00000  1000.00000    90.00000    90.00000    90.00000  Step:          75  Bead:       0 positions{angstrom}  cell{angstrom}
       O -3.15696e+00  1.04677e+00  3.60714e-01
       H -2.82045e+00  1.46287e+00  1.15391e+00
       H -2.48656e+00  6.54275e-01 -1.47664e-01
       H -3.96739e+00  1.33768e+00 -4.63506e-02
4
# CELL(abcABC): 1000.00000  1000.00000  1000.00000    90.00000    90.00000    90.00000  Step:          76  Bead:       0 positions{angstrom}  cell{angstrom}
       O -3.15808e+00  1.04595e+00  3.62150e-01
       H -2.81638e+00  1.46550e+00  1.13561e+00
       H -2.47296e+00  6.61359e-01 -1.64649e-01
       H -3.96726e+00  1.34107e+00 -3.38685e-02
4
# CELL(abcABC): 1000.00000  1000.00000  1000.00000    90.00000    90.00000    90.00000  Step:          77  Bead:       0 positions{angstrom}  cell{angstrom}
       O -3.15910e+00  1.04510e+00  3.63500e-01
       H -2.81207e+00  1.46939e+00  1.11889e+00
       H -2.45936e+00  6.68062e-01 -1.81375e-01
       H -3.96886e+00  1.34388e+00 -2.18430e-02
4
# CELL(abcABC): 1000.00000  1000.00000  1000.00000    90.00000    90.00000    90.00000  Step:          78  Bead:       0 positions{angstrom}  cell{angstrom}
       O -3.15997e+00  1.04418e+00  3.64801e-01
       H -2.80808e+00  1.47372e+00  1.10417e+00
       H -2.44629e+00  6.75624e-01 -1.97393e-01
       H -3.97225e+00  1.34671e+00 -1.17613e-02
4
# CELL(abcABC): 1000.00000  1000.00000  1000.00000    90.00000    90.00000    90.00000  Step:          79  Bead:       0 positions{angstrom}  cell{angstrom}
       O -3.16071e+00  1.04318e+00  3.65717e-01
       H -2.80343e+00  1.48036e+00  1.09482e+00
       H -2.43473e+00  6.83218e-01 -2.11545e-01
       H -3.97666e+00  1.34836e+00 -2.80471e-03
4
# CELL(abcABC): 1000.00000  1000.00000  1000.00000    90.00000    90.00000    90.00000  Step:          80  Bead:       0 positions{angstrom}  cell{angstrom}
       O -3.16131e+00  1.04199e+00  3.66096e-01
       H -2.79696e+00  1.48931e+00  1.08993e+00
       H -2.42665e+00  6.91866e-01 -2.21707e-01
       H -3.98173e+00  1.34962e+00  6.22436e-03
4
# CELL(abcABC): 1000.00000  1000.00000  1000.00000    90.00000    90.00000    90.00000  Step:          81  Bead:       0 positions{angstrom}  cell{angstrom}
       O -3.16168e+00  1.04047e+00  3.66108e-01
       H -2.78723e+00  1.50095e+00  1.08841e+00
       H -2.42363e+00  7.03892e-01 -2.28271e-01
       H -3.98857e+00  1.35005e+00  1.41143e-02
4
# CELL(abcABC): 1000.00000  1000.00000  1000.00000    90.00000    90.00000    90.00000  Step:          82  Bead:       0 positions{angstrom}  cell{angstrom}
       O -3.16172e+00  1.03895e+00  3.65664e-01
       H -2.77627e+00  1.51313e+00  1.09049e+00
       H -2.42489e+00  7.16163e-01 -2.31476e-01
       H -3.99757e+00  1.34969e+00  2.23016e-02
4
# CELL(abcABC): 1000.00000  1000.00000  1000.00000    90.00000    90.00000    90.00000  Step:          83  Bead:       0 positions{angstrom}  cell{angstrom}
       O -3.16146e+00  1.03732e+00  3.64966e-01
       H -2.76556e+00  1.52591e+00  1.09434e+00
       H -2.43055e+00  7.30029e-01 -2.31581e-01
       H -4.00677e+00  1.34896e+00  2.96240e-02
4
# CELL(abcABC): 1000.00000  1000.00000  1000.00000    90.00000    90.00000    90.00000  Step:          84  Bead:       0 positions{angstrom}  cell{angstrom}
       O -3.16085e+00  1.03574e+00  3.64182e-01
       H -2.75494e+00  1.53709e+00  1.09698e+00
       H -2.44096e+00  7.44887e-01 -2.29413e-01
       H -4.01672e+00  1.34796e+00  3.72585e-02
4
# CELL(abcABC): 1000.00000  1000.00000  1000.00000    90.00000    90.00000    90.00000  Step:          85  Bead:       0 positions{angstrom}  cell{angstrom}