6
# CELL(abcABC): 1000.00000  1000.00000  1000.00000    90.00000    90.00000    90.00000  Step:         451  Bead:       0 positions{angstrom}  cell{angstrom}
       C -7.16371e-01  2.81390e+00 -5.58747e-01
       H -9.52388e-01  3.39916e+00 -1.47709e+00
       H  3.16712e-01  3.06360e+00 -3.24617e-01
       H -7.00527e-01  1.75041e+00 -7.82674e-01
       O -1.53377e+00  3.17007e+00  4.97650e-01
       H -2.29142e+00  2.77756e+00  1.02938e+00
