6
# CELL(abcABC): 1000.00000  1000.00000  1000.00000    90.00000    90.00000    90.00000  Step:         454  Bead:       0 positions{angstrom}  cell{angstrom}
       C -6.88910e-01  3.09385e+00 -5.62534e-01
       H -1.17922e+00  3.66018e+00 -1.36017e+00
       H  1.05982e-01  3.74438e+00 -2.11321e-01
       H -2.76399e-01  2.17188e+00 -9.23015e-01
       O -1.55984e+00  2.86915e+00  4.77365e-01
       H -2.19125e+00  2.85500e+00  1.30663e+00
